                         Program Version 6.0.0  -   RELEASE  -
|  1> ! pbe def2-sv(p) def2/J RI DEFGRID1 loosescf d4 GCP(DFT/SV(P)) printgap
|  2> %output
|  3>     printlevel normal
|  4> end
|  5> * xyz 0 1
|  6> C 3.0182499359 -1.2705308638 -2.4424902097
|  7> C 3.3469064425 0.1702048949 -2.1168019901
|  8> O 2.3731183193 0.7682692022 -1.2247837255
|  9> P 2.0783143748 0.3239464473 0.2488747908
| 10> S 1.1221085258 1.6898599278 1.2785868479
| 11> O 3.5563598644 0.0411967851 0.7796451512
| 12> C 3.7982718252 -0.3381355039 2.1483423791
| 13> C 5.2946314132 -0.2999754983 2.3835328643
| 14> S 1.1852199497 -1.6159190759 0.3093283405
| 15> C -0.1422696017 -1.3260265983 1.512578378
| 16> S -1.8236318279 -1.4731719284 0.8418569669
| 17> P -1.966318887 0.2160782672 -0.4386305312
| 18> S -0.6337937288 0.4095829868 -1.8615965449
| 19> O -2.0536260705 1.5073837938 0.4521900837
| 20> C -2.7061249038 1.6438216373 1.7386776873
| 21> C -4.1778043517 1.2965093459 1.6940480916
| 22> O -3.4444090051 0.0494606331 -0.993448385
| 23> C -3.7659779165 -0.9208992434 -2.0096446677
| 24> C -5.0304078388 -0.465615659 -2.7096420301
| 25> H 3.6910203057 -1.6230932239 -3.2178674219
| 26> H 3.1331300697 -1.8980360084 -1.5597177184
| 27> H 1.991669768 -1.3449160954 -2.7956433932
| 28> H 3.2844226362 0.8044500765 -3.0024030103
| 29> H 4.3320486091 0.2610662591 -1.6553533827
| 30> H 3.2698665394 0.3647178293 2.8009004191
| 31> H 3.3958762422 -1.3439267435 2.3010389302
| 32> H 5.4996319089 -0.5824915799 3.4107483764
| 33> H 5.7948682448 -0.9922993004 1.712810219
| 34> H 5.6747055107 0.7018343064 2.2043166814
| 35> H -0.000780536 -0.3288711143 1.9392691255
| 36> H -0.0764656529 -2.1009675249 2.2718447827
| 37> H -2.1759205424 1.0182626198 2.4613209098
| 38> H -2.5405301019 2.6943693444 1.9831137286
| 39> H -4.3115019607 0.2349956409 1.4982048233
| 40> H -4.6238145906 1.5394817333 2.6535867395
| 41> H -4.6734424886 1.8650867094 0.9117529619
| 42> H -2.9240435089 -0.9886025773 -2.7071519996
| 43> H -3.90552256 -1.8877971861 -1.519511101
| 44> H -5.8422920911 -0.3810482159 -1.9934075252
| 45> H -4.8695000391 0.5022561948 -3.1765110169
| 46> H -5.2954964793 -1.1911632727 -3.4715284229
| 47> *
| 48>
| 49>                          ****END OF INPUT****

CARTESIAN COORDINATES (ANGSTROEM)
---------------------------------
  C      3.018250   -1.270531   -2.442490
  C      3.346906    0.170205   -2.116802
  O      2.373118    0.768269   -1.224784
  P      2.078314    0.323946    0.248875
  S      1.122109    1.689860    1.278587
  O      3.556360    0.041197    0.779645
  C      3.798272   -0.338136    2.148342
  C      5.294631   -0.299975    2.383533
  S      1.185220   -1.615919    0.309328
  C     -0.142270   -1.326027    1.512578
  S     -1.823632   -1.473172    0.841857
  P     -1.966319    0.216078   -0.438631
  S     -0.633794    0.409583   -1.861597
  O     -2.053626    1.507384    0.452190
  C     -2.706125    1.643822    1.738678
  C     -4.177804    1.296509    1.694048
  O     -3.444409    0.049461   -0.993448
  C     -3.765978   -0.920899   -2.009645
  C     -5.030408   -0.465616   -2.709642
  H      3.691020   -1.623093   -3.217867
  H      3.133130   -1.898036   -1.559718
  H      1.991670   -1.344916   -2.795643
  H      3.284423    0.804450   -3.002403
  H      4.332049    0.261066   -1.655353
  H      3.269867    0.364718    2.800900
  H      3.395876   -1.343927    2.301039
  H      5.499632   -0.582492    3.410748
  H      5.794868   -0.992299    1.712810
  H      5.674706    0.701834    2.204317
  H     -0.000781   -0.328871    1.939269
  H     -0.076466   -2.100968    2.271845
  H     -2.175921    1.018263    2.461321
  H     -2.540530    2.694369    1.983114
  H     -4.311502    0.234996    1.498205
  H     -4.623815    1.539482    2.653587
  H     -4.673442    1.865087    0.911753
  H     -2.924044   -0.988603   -2.707152
  H     -3.905523   -1.887797   -1.519511
  H     -5.842292   -0.381048   -1.993408
  H     -4.869500    0.502256   -3.176511
  H     -5.295496   -1.191163   -3.471528

 Total Charge           Charge          ....    0
 Multiplicity           Mult            ....    1
 Number of Electrons    NEL             ....  202
 Basis Dimension        Dim             ....  334

ORBITAL ENERGIES
----------------

  NO   OCC          E(Eh)            E(eV)
   0   2.0000     -88.039278     -2395.6706
   1   2.0000     -88.037859     -2395.6319
   2   2.0000     -87.978793     -2394.0247
   3   2.0000     -87.970212     -2393.7912
   4   2.0000     -76.421425     -2079.5327
   5   2.0000     -76.417145     -2079.4162
   6   2.0000     -18.787121      -511.2236
   7   2.0000     -18.785267      -511.1731
   8   2.0000     -18.784693      -511.1575
   9   2.0000     -18.782534      -511.0987
  10   2.0000      -9.953754      -270.8554
  11   2.0000      -9.952973      -270.8342
  12   2.0000      -9.951140      -270.7843
  13   2.0000      -9.949747      -270.7464
  14   2.0000      -9.947463      -270.6842
  15   2.0000      -9.887689      -269.0577
  16   2.0000      -9.885473      -268.9974
  17   2.0000      -9.884403      -268.9683
  18   2.0000      -9.882481      -268.9160
  19   2.0000      -7.684301      -209.1005
  20   2.0000      -7.682370      -209.0479
  21   2.0000      -7.624010      -207.4599
  22   2.0000      -7.615260      -207.2217
  23   2.0000      -6.418519      -174.6568
  24   2.0000      -6.414499      -174.5474
  25   2.0000      -5.711887      -155.4284
  26   2.0000      -5.710323      -155.3858
  27   2.0000      -5.708740      -155.3427
  28   2.0000      -5.706880      -155.2921
  29   2.0000      -5.701652      -155.1498
  30   2.0000      -5.699384      -155.0881
  31   2.0000      -5.652931      -153.8241
  32   2.0000      -5.644724      -153.6008
  33   2.0000      -5.644263      -153.5882
  34   2.0000      -5.643981      -153.5805
  35   2.0000      -5.635736      -153.3562
  36   2.0000      -5.635438      -153.3481
  37   2.0000      -4.641359      -126.2978
  38   2.0000      -4.640150      -126.2649
  39   2.0000      -4.638900      -126.2309
  40   2.0000      -4.637382      -126.1896
  41   2.0000      -4.636545      -126.1668
  42   2.0000      -4.634428      -126.1092
  43   2.0000      -0.983962       -26.7750
  44   2.0000      -0.979601       -26.6563
  45   2.0000      -0.938681       -25.5428
  46   2.0000      -0.938584       -25.5402
  47   2.0000      -0.756479       -20.5848
  48   2.0000      -0.717036       -19.5115
  49   2.0000      -0.709405       -19.3039
  50   2.0000      -0.690119       -18.7791
  51   2.0000      -0.687811       -18.7163
  52   2.0000      -0.672824       -18.3085
  53   2.0000      -0.643566       -17.5123
  54   2.0000      -0.628493       -17.1022
  55   2.0000      -0.591276       -16.0895
  56   2.0000      -0.586348       -15.9553
  57   2.0000      -0.569819       -15.5056
  58   2.0000      -0.565479       -15.3875
  59   2.0000      -0.560862       -15.2618
  60   2.0000      -0.503446       -13.6995
  61   2.0000      -0.498114       -13.5544
  62   2.0000      -0.473239       -12.8775
  63   2.0000      -0.470211       -12.7951
  64   2.0000      -0.448570       -12.2062
  65   2.0000      -0.444295       -12.0899
  66   2.0000      -0.440177       -11.9778
  67   2.0000      -0.432102       -11.7581
  68   2.0000      -0.428445       -11.6586
  69   2.0000      -0.424804       -11.5595
  70   2.0000      -0.405022       -11.0212
  71   2.0000      -0.395469       -10.7613
  72   2.0000      -0.394485       -10.7345
  73   2.0000      -0.379987       -10.3400
  74   2.0000      -0.373888       -10.1740
  75   2.0000      -0.364328        -9.9139
  76   2.0000      -0.359344        -9.7783
  77   2.0000      -0.354483        -9.6460
  78   2.0000      -0.353788        -9.6271
  79   2.0000      -0.349135        -9.5004
  80   2.0000      -0.345669        -9.4061
  81   2.0000      -0.343864        -9.3570
  82   2.0000      -0.339129        -9.2282
  83   2.0000      -0.337817        -9.1925
  84   2.0000      -0.330930        -9.0051
  85   2.0000      -0.312420        -8.5014
  86   2.0000      -0.308438        -8.3930
  87   2.0000      -0.299893        -8.1605
  88   2.0000      -0.292692        -7.9645
  89   2.0000      -0.288331        -7.8459
  90   2.0000      -0.283084        -7.7031
  91   2.0000      -0.270845        -7.3701
  92   2.0000      -0.267488        -7.2787
  93   2.0000      -0.256171        -6.9708
  94   2.0000      -0.251795        -6.8517
  95   2.0000      -0.236023        -6.4225
  96   2.0000      -0.219861        -5.9827
  97   2.0000      -0.198677        -5.4063
  98   2.0000      -0.196916        -5.3583
  99   2.0000      -0.181416        -4.9366
 100   2.0000      -0.180684        -4.9167
 101   0.0000      -0.035921        -0.9775
 102   0.0000      -0.028856        -0.7852
 103   0.0000      -0.006209        -0.1690
 104   0.0000       0.006247         0.1700
 105   0.0000       0.020165         0.5487

MULLIKEN ATOMIC CHARGES
-----------------------
   0 C :   -0.336001
   1 C :    0.004207
   2 O :   -0.343384
   3 P :    0.617528
   4 S :   -0.302570
   5 O :   -0.388750
   6 C :   -0.003695
   7 C :   -0.280187
   8 S :   -0.106435
   9 C :   -0.334498
  10 S :   -0.130490
  11 P :    0.603221
  12 S :   -0.303797
  13 O :   -0.345326
  14 C :    0.000211
  15 C :   -0.304069
  16 O :   -0.379744
  17 C :   -0.008900
  18 C :   -0.281693
  19 H :    0.115067
  20 H :    0.125561
  21 H :    0.143430
  22 H :    0.113589
  23 H :    0.110614
  24 H :    0.098789
  25 H :    0.092532
  26 H :    0.110231
  27 H :    0.112997
  28 H :    0.121120
  29 H :    0.185938
  30 H :    0.176351
  31 H :    0.106748
  32 H :    0.112825
  33 H :    0.116671
  34 H :    0.110184
  35 H :    0.121818
  36 H :    0.103456
  37 H :    0.100427
  38 H :    0.113373
  39 H :    0.122342
  40 H :    0.110307
Sum of atomic charges:   -0.0000000

LOEWDIN ATOMIC CHARGES
----------------------
   0 C :   -0.371105
   1 C :   -0.106170
   2 O :   -0.218583
   3 P :    0.575644
   4 S :   -0.296496
   5 O :   -0.257435
   6 C :   -0.124626
   7 C :   -0.350558
   8 S :    0.076277
   9 C :   -0.487787
  10 S :    0.054028
  11 P :    0.559986
  12 S :   -0.307977
  13 O :   -0.223819
  14 C :   -0.109498
  15 C :   -0.366817
  16 O :   -0.247427
  17 C :   -0.122068
  18 C :   -0.351002
  19 H :    0.132417
  20 H :    0.115437
  21 H :    0.134017
  22 H :    0.124967
  23 H :    0.113969
  24 H :    0.106224
  25 H :    0.101759
  26 H :    0.130011
  27 H :    0.124960
  28 H :    0.128920
  29 H :    0.116680
  30 H :    0.135831
  31 H :    0.108569
  32 H :    0.124139
  33 H :    0.118204
  34 H :    0.129686
  35 H :    0.128807
  36 H :    0.107258
  37 H :    0.108479
  38 H :    0.125026
  39 H :    0.129981
  40 H :    0.130094

  Mayer bond orders larger than 0.100000
B(  0-C ,  1-C ) :   1.1694 B(  0-C , 19-H ) :   0.9355 B(  0-C , 20-H ) :   0.9323
B(  0-C , 21-H ) :   0.9383 B(  1-C ,  2-O ) :   0.8953 B(  1-C , 22-H ) :   0.9325
B(  1-C , 23-H ) :   0.9267 B(  2-O ,  3-P ) :   1.1608 B(  3-P ,  4-S ) :   1.6202
B(  3-P ,  5-O ) :   1.0539 B(  3-P ,  8-S ) :   0.9316 B(  4-S ,  8-S ) :   0.1187
B(  4-S , 29-H ) :   0.1362 B(  5-O ,  6-C ) :   0.9142 B(  6-C ,  7-C ) :   1.1608
B(  6-C , 24-H ) :   0.9114 B(  6-C , 25-H ) :   0.9197 B(  7-C , 26-H ) :   0.9423
B(  7-C , 27-H ) :   0.9514 B(  7-C , 28-H ) :   0.9513 B(  8-S ,  9-C ) :   1.0091
B(  9-C , 10-S ) :   0.9844 B(  9-C , 29-H ) :   0.8419 B(  9-C , 30-H ) :   0.9104
B( 10-S , 11-P ) :   0.9447 B( 10-S , 12-S ) :   0.1152 B( 11-P , 12-S ) :   1.6579
B( 11-P , 13-O ) :   1.1515 B( 11-P , 16-O ) :   1.0798 B( 13-O , 14-C ) :   0.8986
B( 14-C , 15-C ) :   1.1683 B( 14-C , 31-H ) :   0.9192 B( 14-C , 32-H ) :   0.9347
B( 15-C , 33-H ) :   0.9379 B( 15-C , 34-H ) :   0.9363 B( 15-C , 35-H ) :   0.9436
B( 16-O , 17-C ) :   0.9061 B( 17-C , 18-C ) :   1.1609 B( 17-C , 36-H ) :   0.9023
B( 17-C , 37-H ) :   0.9310 B( 18-C , 38-H ) :   0.9516 B( 18-C , 39-H ) :   0.9504
B( 18-C , 40-H ) :   0.9419

Dispersion correction           -0.066088693
FINAL SINGLE POINT ENERGY     -2929.510175480556

DIPOLE MOMENT
-------------

Method             : SCF
Type of density    : Electron Density
Multiplicity       :   1
Irrep              :   0
Energy             : -2929.6284245827173436 Eh
Relativity type    :
Basis              : AO
                                X                 Y                 Z
Electronic contribution:      1.274319602       3.718324162      -0.547741544
Nuclear contribution   :     -1.188937591      -4.806362570       1.123396531
                        -----------------------------------------
Total Dipole Moment    :      0.085382011      -1.088038408       0.575654987
                        -----------------------------------------
Magnitude (a.u.)       :      1.233894780
Magnitude (Debye)      :      3.136311285

Rotational constants in cm-1:             0.013496             0.004998             0.004445
Rotational constants in MHz :           404.605429           149.824836           133.263113

                             ****ORCA TERMINATED NORMALLY****
TOTAL RUN TIME: 0 days 0 hours 0 minutes 20 seconds 813 msec
