                         Program Version 6.0.1  -  RELEASE   -
|  1> ! pbe def2-sv(p) def2/J RI DEFGRID1 loosescf d4 GCP(DFT/SV(P)) printgap
|  2> %output
|  3>     printlevel normal
|  4> end
|  5> * xyz 0 1
|  6> C 4.0262516237 -2.6153806186 0.7796225694
|  7> C 2.7922993884 -1.7574249941 0.9985613818
|  8> O 2.5884741873 -0.9131673375 -0.150967942
|  9> C 1.4937601018 -1.0236116329 -0.8617749212
| 10> O 0.5700462651 -1.7803773425 -0.6164616034
| 11> C 1.4734777626 -0.0681226525 -2.0353447335
| 12> C 0.2852038827 0.8904051158 -1.9001704106
| 13> H 0.2077155721 1.5048200535 -2.8015125486
| 14> C 0.417703584 1.8053145572 -0.694409551
| 15> O -0.4860370826 1.9723676095 0.1005010729
| 16> O 1.5931830592 2.36829854 -0.6368686681
| 17> C 1.9121254022 3.1983019592 0.5019603188
| 18> C 2.5052833484 2.3538721865 1.6173700645
| 19> S -1.3175970317 0.0284972233 -1.7961835036
| 20> P -1.5530598401 -0.3706359418 0.2737018608
| 21> S -0.3761599329 -0.3055591003 1.8416407752
| 22> O -2.8761372955 0.5475172646 0.4218789311
| 23> C -3.40757308 0.8919068395 1.7009425619
| 24> O -2.1485718206 -1.8605627595 0.279421248
| 25> C -3.0443851508 -2.3442346934 -0.729777918
| 26> H 4.885188085 -1.9833890921 0.5749869567
| 27> H 4.2143830337 -3.1986480573 1.6746829738
| 28> H 3.8743291271 -3.2904896488 -0.058461855
| 29> H 2.9172031219 -1.0831812343 1.8485762769
| 30> H 1.8946747272 -2.3616617468 1.1556830145
| 31> H 1.3459417989 -0.6497321695 -2.948827199
| 32> H 2.4040701808 0.497146459 -2.0634239033
| 33> H 2.6341322547 3.9173532016 0.1153261464
| 34> H 1.002209163 3.7035333791 0.8353721772
| 35> H 1.7714975022 1.631821527 1.9746517045
| 36> H 3.3787186674 1.8179648163 1.2562406798
| 37> H 2.7920478449 2.9975288596 2.4420093974
| 38> H -2.6654266172 1.4526991827 2.2706117874
| 39> H -3.688225385 -0.0053503079 2.2553948157
| 40> H -4.2789467694 1.5082646319 1.4952797475
| 41> H -2.4665251725 -2.6925966312 -1.5851338754
| 42> H -3.7346303797 -1.5581973769 -1.0399264467
| 43> H -3.5828893092 -3.1696645474 -0.2701131533
| 44> *
| 45>
| 46>                          ****END OF INPUT****

CARTESIAN COORDINATES (ANGSTROEM)
---------------------------------
  C      4.026252   -2.615381    0.779623
  C      2.792299   -1.757425    0.998561
  O      2.588474   -0.913167   -0.150968
  C      1.493760   -1.023612   -0.861775
  O      0.570046   -1.780377   -0.616462
  C      1.473478   -0.068123   -2.035345
  C      0.285204    0.890405   -1.900170
  H      0.207716    1.504820   -2.801513
  C      0.417704    1.805315   -0.694410
  O     -0.486037    1.972368    0.100501
  O      1.593183    2.368299   -0.636869
  C      1.912125    3.198302    0.501960
  C      2.505283    2.353872    1.617370
  S     -1.317597    0.028497   -1.796184
  P     -1.553060   -0.370636    0.273702
  S     -0.376160   -0.305559    1.841641
  O     -2.876137    0.547517    0.421879
  C     -3.407573    0.891907    1.700943
  O     -2.148572   -1.860563    0.279421
  C     -3.044385   -2.344235   -0.729778
  H      4.885188   -1.983389    0.574987
  H      4.214383   -3.198648    1.674683
  H      3.874329   -3.290490   -0.058462
  H      2.917203   -1.083181    1.848576
  H      1.894675   -2.361662    1.155683
  H      1.345942   -0.649732   -2.948827
  H      2.404070    0.497146   -2.063424
  H      2.634132    3.917353    0.115326
  H      1.002209    3.703533    0.835372
  H      1.771498    1.631822    1.974652
  H      3.378719    1.817965    1.256241
  H      2.792048    2.997529    2.442009
  H     -2.665427    1.452699    2.270612
  H     -3.688225   -0.005350    2.255395
  H     -4.278947    1.508265    1.495280
  H     -2.466525   -2.692597   -1.585134
  H     -3.734630   -1.558197   -1.039926
  H     -3.582889   -3.169665   -0.270113

 Total Charge           Charge          ....    0
 Multiplicity           Mult            ....    1
 Number of Electrons    NEL             ....  174
 Basis Dimension        Dim             ....  316

ORBITAL ENERGIES
----------------

  NO   OCC          E(Eh)            E(eV)
   0   2.0000     -88.027797     -2395.3581
   1   2.0000     -87.963196     -2393.6002
   2   2.0000     -76.410858     -2079.2452
   3   2.0000     -18.816546      -512.0242
   4   2.0000     -18.805028      -511.7108
   5   2.0000     -18.765017      -510.6221
   6   2.0000     -18.762299      -510.5481
   7   2.0000     -18.752210      -510.2736
   8   2.0000     -18.735008      -509.8055
   9   2.0000     -10.022261      -272.7196
  10   2.0000     -10.010575      -272.4016
  11   2.0000      -9.955430      -270.9010
  12   2.0000      -9.953991      -270.8619
  13   2.0000      -9.939621      -270.4708
  14   2.0000      -9.930950      -270.2349
  15   2.0000      -9.923399      -270.0294
  16   2.0000      -9.913658      -269.7643
  17   2.0000      -9.886237      -269.0182
  18   2.0000      -9.883819      -268.9524
  19   2.0000      -7.673053      -208.7944
  20   2.0000      -7.608400      -207.0351
  21   2.0000      -6.406079      -174.3183
  22   2.0000      -5.701448      -155.1443
  23   2.0000      -5.698037      -155.0515
  24   2.0000      -5.688891      -154.8026
  25   2.0000      -5.638005      -153.4179
  26   2.0000      -5.629114      -153.1760
  27   2.0000      -5.627626      -153.1355
  28   2.0000      -4.628986      -125.9611
  29   2.0000      -4.628029      -125.9351
  30   2.0000      -4.626643      -125.8974
  31   2.0000      -1.026550       -27.9338
  32   2.0000      -1.010632       -27.5007
  33   2.0000      -0.956858       -26.0374
  34   2.0000      -0.931078       -25.3359
  35   2.0000      -0.915441       -24.9104
  36   2.0000      -0.912800       -24.8386
  37   2.0000      -0.765712       -20.8361
  38   2.0000      -0.710316       -19.3287
  39   2.0000      -0.707725       -19.2582
  40   2.0000      -0.681956       -18.5570
  41   2.0000      -0.652062       -17.7435
  42   2.0000      -0.625901       -17.0316
  43   2.0000      -0.613393       -16.6913
  44   2.0000      -0.600209       -16.3325
  45   2.0000      -0.591730       -16.1018
  46   2.0000      -0.565757       -15.3950
  47   2.0000      -0.508557       -13.8385
  48   2.0000      -0.502348       -13.6696
  49   2.0000      -0.495159       -13.4740
  50   2.0000      -0.483911       -13.1679
  51   2.0000      -0.458119       -12.4660
  52   2.0000      -0.452430       -12.3113
  53   2.0000      -0.447906       -12.1881
  54   2.0000      -0.439245       -11.9525
  55   2.0000      -0.426024       -11.5927
  56   2.0000      -0.414433       -11.2773
  57   2.0000      -0.412998       -11.2383
  58   2.0000      -0.408224       -11.1083
  59   2.0000      -0.400101       -10.8873
  60   2.0000      -0.395376       -10.7587
  61   2.0000      -0.390720       -10.6320
  62   2.0000      -0.382872       -10.4185
  63   2.0000      -0.379620       -10.3300
  64   2.0000      -0.374738       -10.1971
  65   2.0000      -0.365830        -9.9547
  66   2.0000      -0.356968        -9.7136
  67   2.0000      -0.355455        -9.6724
  68   2.0000      -0.346281        -9.4228
  69   2.0000      -0.339397        -9.2355
  70   2.0000      -0.334802        -9.1104
  71   2.0000      -0.324571        -8.8320
  72   2.0000      -0.321163        -8.7393
  73   2.0000      -0.304082        -8.2745
  74   2.0000      -0.300331        -8.1724
  75   2.0000      -0.295441        -8.0394
  76   2.0000      -0.289874        -7.8879
  77   2.0000      -0.273494        -7.4421
  78   2.0000      -0.263721        -7.1762
  79   2.0000      -0.260040        -7.0760
  80   2.0000      -0.251152        -6.8342
  81   2.0000      -0.245184        -6.6718
  82   2.0000      -0.232853        -6.3362
  83   2.0000      -0.225824        -6.1450
  84   2.0000      -0.193532        -5.2663
  85   2.0000      -0.182164        -4.9569
  86   2.0000      -0.171056        -4.6547
  87   0.0000      -0.044499        -1.2109
  88   0.0000      -0.041639        -1.1331
  89   0.0000      -0.027385        -0.7452
  90   0.0000       0.003502         0.0953
  91   0.0000       0.036221         0.9856

MULLIKEN ATOMIC CHARGES
-----------------------
   0 C :   -0.282462
   1 C :   -0.039628
   2 O :   -0.221160
   3 C :    0.089563
   4 O :   -0.195282
   5 C :   -0.015085
   6 C :   -0.325629
   7 H :    0.155042
   8 C :    0.205547
   9 O :   -0.172104
  10 O :   -0.223155
  11 C :   -0.008875
  12 C :   -0.328561
  13 S :   -0.069751
  14 P :    0.625661
  15 S :   -0.338634
  16 O :   -0.390360
  17 C :   -0.094237
  18 O :   -0.371300
  19 C :   -0.117153
  20 H :    0.110177
  21 H :    0.114368
  22 H :    0.112275
  23 H :    0.110528
  24 H :    0.135252
  25 H :    0.120243
  26 H :    0.114000
  27 H :    0.104253
  28 H :    0.115299
  29 H :    0.155003
  30 H :    0.114732
  31 H :    0.110380
  32 H :    0.120447
  33 H :    0.105984
  34 H :    0.112255
  35 H :    0.124756
  36 H :    0.113387
  37 H :    0.124225
Sum of atomic charges:    0.0000000

LOEWDIN ATOMIC CHARGES
----------------------
   0 C :   -0.352342
   1 C :   -0.115254
   2 O :   -0.043176
   3 C :    0.020109
   4 O :   -0.171130
   5 C :   -0.248869
   6 C :   -0.259940
   7 H :    0.152813
   8 C :    0.010488
   9 O :   -0.146455
  10 O :   -0.041419
  11 C :   -0.104348
  12 C :   -0.363218
  13 S :    0.124030
  14 P :    0.603570
  15 S :   -0.307048
  16 O :   -0.271961
  17 C :   -0.215130
  18 O :   -0.254633
  19 C :   -0.221735
  20 H :    0.123037
  21 H :    0.131532
  22 H :    0.125760
  23 H :    0.118358
  24 H :    0.126121
  25 H :    0.145097
  26 H :    0.137184
  27 H :    0.118477
  28 H :    0.123445
  29 H :    0.129319
  30 H :    0.123614
  31 H :    0.130244
  32 H :    0.111437
  33 H :    0.106473
  34 H :    0.115443
  35 H :    0.113188
  36 H :    0.105406
  37 H :    0.121515

  Mayer bond orders larger than 0.100000
B(  0-C ,  1-C ) :   1.1608 B(  0-C , 20-H ) :   0.9494 B(  0-C , 21-H ) :   0.9453
B(  0-C , 22-H ) :   0.9498 B(  1-C ,  2-O ) :   0.8969 B(  1-C , 23-H ) :   0.9318
B(  1-C , 24-H ) :   0.9047 B(  2-O ,  3-C ) :   1.2530 B(  3-C ,  4-O ) :   1.9773
B(  3-C ,  5-C ) :   0.9936 B(  5-C ,  6-C ) :   1.0161 B(  5-C , 25-H ) :   0.8897
B(  5-C , 26-H ) :   0.8847 B(  6-C ,  7-H ) :   0.8724 B(  6-C ,  8-C ) :   0.8891
B(  6-C , 13-S ) :   1.0705 B(  8-C ,  9-O ) :   1.9940 B(  8-C , 10-O ) :   1.2626
B( 10-O , 11-C ) :   0.8971 B( 11-C , 12-C ) :   1.1793 B( 11-C , 27-H ) :   0.9369
B( 11-C , 28-H ) :   0.9128 B( 12-C , 29-H ) :   0.9223 B( 12-C , 30-H ) :   0.9448
B( 12-C , 31-H ) :   0.9393 B( 13-S , 14-P ) :   0.9196 B( 13-S , 15-S ) :   0.1129
B( 14-P , 15-S ) :   1.5262 B( 14-P , 16-O ) :   1.0520 B( 14-P , 18-O ) :   1.0882
B( 16-O , 17-C ) :   0.9422 B( 17-C , 32-H ) :   0.9424 B( 17-C , 33-H ) :   0.9494
B( 17-C , 34-H ) :   0.9568 B( 18-O , 19-C ) :   0.9405 B( 19-C , 35-H ) :   0.9457
B( 19-C , 36-H ) :   0.9392 B( 19-C , 37-H ) :   0.9580

Dispersion correction           -0.056330277
FINAL SINGLE POINT ENERGY     -1978.992646106445

DIPOLE MOMENT
-------------

Method             : SCF
Type of density    : Electron Density
Multiplicity       :   1
Irrep              :   0
Energy             : -1979.1203656686157046 Eh
Relativity type    :
Basis              : AO
                                X                 Y                 Z
Electronic contribution:    -12.618486445       1.083435218      -7.040774968
Nuclear contribution   :     13.532999217      -0.558179304       6.435697201
                        -----------------------------------------
Total Dipole Moment    :      0.914512772       0.525255914      -0.605077767
                        -----------------------------------------
Magnitude (a.u.)       :      1.215872727
Magnitude (Debye)      :      3.090502867

Rotational constants in cm-1:             0.012781             0.008929             0.007571
Rotational constants in MHz :           383.159917           267.683806           226.980337

                             ****ORCA TERMINATED NORMALLY****
TOTAL RUN TIME: 0 days 0 hours 0 minutes 37 seconds 453 msec
