                         Program Version 6.0.0  -   RELEASE  -
|  1> ! pbe def2-sv(p) def2/J RI DEFGRID1 loosescf d4 GCP(DFT/SV(P)) printgap
|  2> %output
|  3>     printlevel normal
|  4> end
|  5> * xyz 0 1
|  6> C 0.5139401473 -2.2801748318 1.9180731726
|  7> C 1.8263628484 -1.630213766 2.3074710634
|  8> O 2.1306489152 -0.4880522726 1.4870483966
|  9> P 2.5353034994 -0.6410684368 -0.0350063594
| 10> S 3.3097479556 -2.3561805986 -0.5727311376
| 11> O 3.4672854705 0.6464960097 -0.0934875144
| 12> C 4.1161596383 1.0403642255 -1.319242049
| 13> C 5.5127831458 0.4562122595 -1.4055667497
| 14> S 0.8299897758 -0.0446575281 -1.1664511438
| 15> C 0.4396085992 1.4757154233 -0.2459474611
| 16> S -0.6693297216 1.2114878008 1.1631759072
| 17> P -2.3271604009 0.555840541 0.0361749428
| 18> S -2.6270213586 1.4163169896 -1.7048750161
| 19> O -3.5501611156 0.6296182257 1.0481168821
| 20> C -4.3810490984 1.7966655108 1.1727303931
| 21> C -3.633271407 2.9682377277 1.7759594034
| 22> O -2.0280221758 -1.0004414246 0.0136395835
| 23> C -2.5826139033 -1.8780111046 -0.9843164788
| 24> C -4.0808756852 -2.0299926802 -0.8271181084
| 25> H 0.5768130544 -2.6490732804 0.8938632791
| 26> H 0.3158295649 -3.1161919402 2.5810835633
| 27> H -0.3051533749 -1.5682328055 1.9845772325
| 28> H 2.6464565051 -2.3497979004 2.2196892533
| 29> H 1.7908121094 -1.2234098018 3.3187162407
| 30> H 3.5057046726 0.723440869 -2.172042779
| 31> H 4.1475896753 2.1312500601 -1.2794371871
| 32> H 6.0930501638 0.7501494045 -0.5355411929
| 33> H 5.4659824254 -0.6298824925 -1.4438970505
| 34> H 5.9988545385 0.8219905041 -2.3042735722
| 35> H -0.0435643004 2.1427742102 -0.959125037
| 36> H 1.3540382945 1.9075378204 0.1533823507
| 37> H -4.763723765 2.0560676039 0.1803623785
| 38> H -5.2003971603 1.4676606699 1.8132004477
| 39> H -3.1625300943 2.675538971 2.711108184
| 40> H -2.8622292133 3.3117493453 1.0874960659
| 41> H -4.3279416626 3.7815731229 1.9597998748
| 42> H -2.3310510542 -1.4804825783 -1.9731432863
| 43> H -2.0590571123 -2.8217967752 -0.8254201779
| 44> H -4.4437351656 -2.7725683104 -1.5307435106
| 45> H -4.321712282 -2.3405400843 0.1861527068
| 46> H -4.5722290768 -1.0792100146 -1.0311546671
| 47> *
| 48>
| 49>                          ****END OF INPUT****

CARTESIAN COORDINATES (ANGSTROEM)
---------------------------------
  C      0.513940   -2.280175    1.918073
  C      1.826363   -1.630214    2.307471
  O      2.130649   -0.488052    1.487048
  P      2.535303   -0.641068   -0.035006
  S      3.309748   -2.356181   -0.572731
  O      3.467285    0.646496   -0.093488
  C      4.116160    1.040364   -1.319242
  C      5.512783    0.456212   -1.405567
  S      0.829990   -0.044658   -1.166451
  C      0.439609    1.475715   -0.245947
  S     -0.669330    1.211488    1.163176
  P     -2.327160    0.555841    0.036175
  S     -2.627021    1.416317   -1.704875
  O     -3.550161    0.629618    1.048117
  C     -4.381049    1.796666    1.172730
  C     -3.633271    2.968238    1.775959
  O     -2.028022   -1.000441    0.013640
  C     -2.582614   -1.878011   -0.984316
  C     -4.080876   -2.029993   -0.827118
  H      0.576813   -2.649073    0.893863
  H      0.315830   -3.116192    2.581084
  H     -0.305153   -1.568233    1.984577
  H      2.646457   -2.349798    2.219689
  H      1.790812   -1.223410    3.318716
  H      3.505705    0.723441   -2.172043
  H      4.147590    2.131250   -1.279437
  H      6.093050    0.750149   -0.535541
  H      5.465982   -0.629882   -1.443897
  H      5.998855    0.821991   -2.304274
  H     -0.043564    2.142774   -0.959125
  H      1.354038    1.907538    0.153382
  H     -4.763724    2.056068    0.180362
  H     -5.200397    1.467661    1.813200
  H     -3.162530    2.675539    2.711108
  H     -2.862229    3.311749    1.087496
  H     -4.327942    3.781573    1.959800
  H     -2.331051   -1.480483   -1.973143
  H     -2.059057   -2.821797   -0.825420
  H     -4.443735   -2.772568   -1.530744
  H     -4.321712   -2.340540    0.186153
  H     -4.572229   -1.079210   -1.031155

 Total Charge           Charge          ....    0
 Multiplicity           Mult            ....    1
 Number of Electrons    NEL             ....  202
 Basis Dimension        Dim             ....  334

ORBITAL ENERGIES
----------------

  NO   OCC          E(Eh)            E(eV)
   0   2.0000     -88.046233     -2395.8598
   1   2.0000     -88.042166     -2395.7491
   2   2.0000     -87.995586     -2394.4816
   3   2.0000     -87.988109     -2394.2782
   4   2.0000     -76.431464     -2079.8059
   5   2.0000     -76.426201     -2079.6627
   6   2.0000     -18.799414      -511.5581
   7   2.0000     -18.792982      -511.3831
   8   2.0000     -18.792425      -511.3679
   9   2.0000     -18.790170      -511.3065
  10   2.0000      -9.958178      -270.9758
  11   2.0000      -9.957508      -270.9576
  12   2.0000      -9.954749      -270.8825
  13   2.0000      -9.951515      -270.7945
  14   2.0000      -9.948073      -270.7008
  15   2.0000      -9.888493      -269.0796
  16   2.0000      -9.884935      -268.9827
  17   2.0000      -9.879903      -268.8458
  18   2.0000      -9.873297      -268.6661
  19   2.0000      -7.691421      -209.2942
  20   2.0000      -7.686834      -209.1694
  21   2.0000      -7.640410      -207.9061
  22   2.0000      -7.633252      -207.7114
  23   2.0000      -6.429001      -174.9420
  24   2.0000      -6.423682      -174.7973
  25   2.0000      -5.719191      -155.6271
  26   2.0000      -5.716078      -155.5424
  27   2.0000      -5.714961      -155.5120
  28   2.0000      -5.711121      -155.4075
  29   2.0000      -5.708279      -155.3302
  30   2.0000      -5.703868      -155.2101
  31   2.0000      -5.669158      -154.2656
  32   2.0000      -5.662206      -154.0765
  33   2.0000      -5.661068      -154.0455
  34   2.0000      -5.660761      -154.0371
  35   2.0000      -5.653830      -153.8485
  36   2.0000      -5.653426      -153.8375
  37   2.0000      -4.651379      -126.5705
  38   2.0000      -4.650726      -126.5527
  39   2.0000      -4.649673      -126.5240
  40   2.0000      -4.645992      -126.4239
  41   2.0000      -4.645939      -126.4224
  42   2.0000      -4.643943      -126.3681
  43   2.0000      -0.991575       -26.9821
  44   2.0000      -0.988986       -26.9117
  45   2.0000      -0.950441       -25.8628
  46   2.0000      -0.945411       -25.7259
  47   2.0000      -0.765611       -20.8333
  48   2.0000      -0.722139       -19.6504
  49   2.0000      -0.709191       -19.2981
  50   2.0000      -0.690078       -18.7780
  51   2.0000      -0.679658       -18.4944
  52   2.0000      -0.676670       -18.4131
  53   2.0000      -0.657619       -17.8947
  54   2.0000      -0.642009       -17.4700
  55   2.0000      -0.605042       -16.4640
  56   2.0000      -0.593219       -16.1423
  57   2.0000      -0.575594       -15.6627
  58   2.0000      -0.568171       -15.4607
  59   2.0000      -0.560558       -15.2535
  60   2.0000      -0.501697       -13.6519
  61   2.0000      -0.495916       -13.4946
  62   2.0000      -0.477130       -12.9834
  63   2.0000      -0.468586       -12.7509
  64   2.0000      -0.459420       -12.5015
  65   2.0000      -0.444155       -12.0861
  66   2.0000      -0.443820       -12.0770
  67   2.0000      -0.439706       -11.9650
  68   2.0000      -0.422427       -11.4948
  69   2.0000      -0.420242       -11.4354
  70   2.0000      -0.409887       -11.1536
  71   2.0000      -0.397816       -10.8251
  72   2.0000      -0.395789       -10.7700
  73   2.0000      -0.391462       -10.6522
  74   2.0000      -0.389524       -10.5995
  75   2.0000      -0.376490       -10.2448
  76   2.0000      -0.363712        -9.8971
  77   2.0000      -0.359584        -9.7848
  78   2.0000      -0.355182        -9.6650
  79   2.0000      -0.351686        -9.5699
  80   2.0000      -0.348627        -9.4866
  81   2.0000      -0.345561        -9.4032
  82   2.0000      -0.342035        -9.3073
  83   2.0000      -0.333170        -9.0660
  84   2.0000      -0.329950        -8.9784
  85   2.0000      -0.321629        -8.7520
  86   2.0000      -0.315920        -8.5966
  87   2.0000      -0.300889        -8.1876
  88   2.0000      -0.298567        -8.1244
  89   2.0000      -0.288649        -7.8545
  90   2.0000      -0.286086        -7.7848
  91   2.0000      -0.278365        -7.5747
  92   2.0000      -0.270774        -7.3681
  93   2.0000      -0.268120        -7.2959
  94   2.0000      -0.257707        -7.0126
  95   2.0000      -0.233058        -6.3418
  96   2.0000      -0.222203        -6.0464
  97   2.0000      -0.214834        -5.8459
  98   2.0000      -0.209943        -5.7128
  99   2.0000      -0.206231        -5.6118
 100   2.0000      -0.202561        -5.5120
 101   0.0000      -0.043853        -1.1933
 102   0.0000      -0.026553        -0.7226
 103   0.0000      -0.011037        -0.3003
 104   0.0000       0.004548         0.1238
 105   0.0000       0.006685         0.1819

MULLIKEN ATOMIC CHARGES
-----------------------
   0 C :   -0.327683
   1 C :    0.002146
   2 O :   -0.365246
   3 P :    0.568936
   4 S :   -0.314979
   5 O :   -0.363802
   6 C :   -0.015777
   7 C :   -0.286309
   8 S :   -0.061813
   9 C :   -0.367186
  10 S :   -0.066319
  11 P :    0.608802
  12 S :   -0.332709
  13 O :   -0.370274
  14 C :   -0.005124
  15 C :   -0.316537
  16 O :   -0.353736
  17 C :   -0.004609
  18 C :   -0.307504
  19 H :    0.122646
  20 H :    0.104722
  21 H :    0.135411
  22 H :    0.110699
  23 H :    0.104138
  24 H :    0.102936
  25 H :    0.104276
  26 H :    0.113553
  27 H :    0.129780
  28 H :    0.107239
  29 H :    0.194249
  30 H :    0.191398
  31 H :    0.112174
  32 H :    0.107798
  33 H :    0.119416
  34 H :    0.126464
  35 H :    0.115093
  36 H :    0.114605
  37 H :    0.111363
  38 H :    0.113780
  39 H :    0.117012
  40 H :    0.120970
Sum of atomic charges:    0.0000000

LOEWDIN ATOMIC CHARGES
----------------------
   0 C :   -0.373366
   1 C :   -0.116689
   2 O :   -0.237103
   3 P :    0.567015
   4 S :   -0.314791
   5 O :   -0.243177
   6 C :   -0.119888
   7 C :   -0.362352
   8 S :    0.085366
   9 C :   -0.482572
  10 S :    0.105421
  11 P :    0.572456
  12 S :   -0.321288
  13 O :   -0.242468
  14 C :   -0.118663
  15 C :   -0.369392
  16 O :   -0.231851
  17 C :   -0.116592
  18 C :   -0.364856
  19 H :    0.119750
  20 H :    0.127760
  21 H :    0.118883
  22 H :    0.109782
  23 H :    0.119031
  24 H :    0.105996
  25 H :    0.116519
  26 H :    0.126088
  27 H :    0.124985
  28 H :    0.128604
  29 H :    0.131185
  30 H :    0.134973
  31 H :    0.111146
  32 H :    0.119927
  33 H :    0.125030
  34 H :    0.120955
  35 H :    0.132111
  36 H :    0.111794
  37 H :    0.121065
  38 H :    0.131184
  39 H :    0.126509
  40 H :    0.121510

  Mayer bond orders larger than 0.100000
B(  0-C ,  1-C ) :   1.1629 B(  0-C , 19-H ) :   0.9342 B(  0-C , 20-H ) :   0.9375
B(  0-C , 21-H ) :   0.9309 B(  1-C ,  2-O ) :   0.8990 B(  1-C , 22-H ) :   0.9180
B(  1-C , 23-H ) :   0.9333 B(  2-O ,  3-P ) :   1.1167 B(  3-P ,  4-S ) :   1.6424
B(  3-P ,  5-O ) :   1.0904 B(  3-P ,  8-S ) :   0.9745 B(  5-O ,  6-C ) :   0.9053
B(  6-C ,  7-C ) :   1.1698 B(  6-C , 24-H ) :   0.9099 B(  6-C , 25-H ) :   0.9356
B(  7-C , 26-H ) :   0.9472 B(  7-C , 27-H ) :   0.9321 B(  7-C , 28-H ) :   0.9397
B(  8-S ,  9-C ) :   0.9811 B(  9-C , 10-S ) :   0.9986 B(  9-C , 29-H ) :   0.8821
B(  9-C , 30-H ) :   0.8904 B( 10-S , 11-P ) :   0.9650 B( 10-S , 12-S ) :   0.1097
B( 11-P , 12-S ) :   1.5856 B( 11-P , 13-O ) :   1.1123 B( 11-P , 16-O ) :   1.1280
B( 13-O , 14-C ) :   0.9069 B( 14-C , 15-C ) :   1.1659 B( 14-C , 31-H ) :   0.9167
B( 14-C , 32-H ) :   0.9338 B( 15-C , 33-H ) :   0.9445 B( 15-C , 34-H ) :   0.9357
B( 15-C , 35-H ) :   0.9376 B( 16-O , 17-C ) :   0.9030 B( 17-C , 18-C ) :   1.1634
B( 17-C , 36-H ) :   0.9181 B( 17-C , 37-H ) :   0.9327 B( 18-C , 38-H ) :   0.9394
B( 18-C , 39-H ) :   0.9459 B( 18-C , 40-H ) :   0.9367

Dispersion correction           -0.065590818
FINAL SINGLE POINT ENERGY     -2929.525777104013

DIPOLE MOMENT
-------------

Method             : SCF
Type of density    : Electron Density
Multiplicity       :   1
Irrep              :   0
Energy             : -2929.6458488736129766 Eh
Relativity type    :
Basis              : AO
                                X                 Y                 Z
Electronic contribution:      5.602100669       0.768803408      -4.154858565
Nuclear contribution   :     -6.306519847      -0.178852151       4.824714341
                        -----------------------------------------
Total Dipole Moment    :     -0.704419178       0.589951257       0.669855776
                        -----------------------------------------
Magnitude (a.u.)       :      1.137082067
Magnitude (Debye)      :      2.890232923

Rotational constants in cm-1:             0.013600             0.004512             0.004285
Rotational constants in MHz :           407.710302           135.255456           128.460300

                             ****ORCA TERMINATED NORMALLY****
TOTAL RUN TIME: 0 days 0 hours 0 minutes 20 seconds 964 msec
