                         Program Version 6.0.0  -   RELEASE  -
|  1> ! pbe def2-sv(p) def2/J RI DEFGRID1 loosescf d4 GCP(DFT/SV(P)) printgap
|  2> %output
|  3>     printlevel normal
|  4> end
|  5> * xyz 0 1
|  6> C 4.2849260581 -1.9128097151 -1.0531287787
|  7> C 4.632442041 -0.6269351238 -0.330636956
|  8> O 3.574689372 -0.1847175784 0.5360029905
|  9> P 2.1622728158 0.3036322795 -0.0112304666
| 10> S 2.2569639119 1.3398781991 -1.6767177461
| 11> O 1.5839082536 1.0104999825 1.2832530161
| 12> C 1.7534453175 2.4183806908 1.5375923817
| 13> C 3.208147387 2.7954672032 1.7183442323
| 14> S 0.9932708131 -1.4532855741 -0.0073881461
| 15> C 0.051717078 -1.2248664222 -1.5619376635
| 16> S -1.6989825922 -1.5941168535 -1.3673154676
| 17> P -2.2970266132 0.0836071952 -0.1938890048
| 18> S -1.1645348387 1.6765321799 -0.3279239307
| 19> O -2.508973364 -0.4491139733 1.2919102651
| 20> C -1.4782653654 -0.5333294241 2.2884506474
| 21> C -2.1116046297 -0.2799787771 3.6420992965
| 22> O -3.7666224238 0.3821102472 -0.6559964656
| 23> C -4.7546198441 -0.5938921536 -1.0739648178
| 24> C -5.0222790206 -1.6433902911 -0.0181112637
| 25> H 3.961794258 -2.6707340977 -0.3439613713
| 26> H 3.48185698 -1.7298525228 -1.7663291312
| 27> H 5.1573809842 -2.2688986426 -1.5914735854
| 28> H 4.843524742 0.1702485428 -1.0506425968
| 29> H 5.4820632777 -0.7580652738 0.3406776988
| 30> H 1.2993503411 2.9720045805 0.7086505215
| 31> H 1.1734050148 2.5894481377 2.4457275936
| 32> H 3.2741800285 3.8399214605 2.0064600285
| 33> H 3.6626053455 2.1749623339 2.4864114286
| 34> H 3.7472444891 2.6525202422 0.782354006
| 35> H 0.4212434086 -1.9333787927 -2.2989449662
| 36> H 0.1856332261 -0.1939424712 -1.8998060259
| 37> H -1.0368995211 -1.5325584608 2.234459581
| 38> H -0.7035447265 0.2094795685 2.0684960915
| 39> H -2.548235818 0.7148755502 3.6688407822
| 40> H -2.8907403164 -1.0128255694 3.8295081051
| 41> H -1.3500390583 -0.3588358181 4.4109769459
| 42> H -5.6360207965 0.0186795032 -1.2694553023
| 43> H -4.4064096139 -1.0534817144 -2.0021635893
| 44> H -5.834765449 -2.2811534118 -0.3521895006
| 45> H -4.1351464537 -2.2536015407 0.1376932752
| 46> H -5.2971414562 -1.1709878183 0.9210923662
| 47> *
| 48>
| 49>                          ****END OF INPUT****

CARTESIAN COORDINATES (ANGSTROEM)
---------------------------------
  C      4.284926   -1.912810   -1.053129
  C      4.632442   -0.626935   -0.330637
  O      3.574689   -0.184718    0.536003
  P      2.162273    0.303632   -0.011230
  S      2.256964    1.339878   -1.676718
  O      1.583908    1.010500    1.283253
  C      1.753445    2.418381    1.537592
  C      3.208147    2.795467    1.718344
  S      0.993271   -1.453286   -0.007388
  C      0.051717   -1.224866   -1.561938
  S     -1.698983   -1.594117   -1.367315
  P     -2.297027    0.083607   -0.193889
  S     -1.164535    1.676532   -0.327924
  O     -2.508973   -0.449114    1.291910
  C     -1.478265   -0.533329    2.288451
  C     -2.111605   -0.279979    3.642099
  O     -3.766622    0.382110   -0.655996
  C     -4.754620   -0.593892   -1.073965
  C     -5.022279   -1.643390   -0.018111
  H      3.961794   -2.670734   -0.343961
  H      3.481857   -1.729853   -1.766329
  H      5.157381   -2.268899   -1.591474
  H      4.843525    0.170249   -1.050643
  H      5.482063   -0.758065    0.340678
  H      1.299350    2.972005    0.708651
  H      1.173405    2.589448    2.445728
  H      3.274180    3.839921    2.006460
  H      3.662605    2.174962    2.486411
  H      3.747244    2.652520    0.782354
  H      0.421243   -1.933379   -2.298945
  H      0.185633   -0.193942   -1.899806
  H     -1.036900   -1.532558    2.234460
  H     -0.703545    0.209480    2.068496
  H     -2.548236    0.714876    3.668841
  H     -2.890740   -1.012826    3.829508
  H     -1.350039   -0.358836    4.410977
  H     -5.636021    0.018680   -1.269455
  H     -4.406410   -1.053482   -2.002164
  H     -5.834765   -2.281153   -0.352190
  H     -4.135146   -2.253602    0.137693
  H     -5.297141   -1.170988    0.921092

 Total Charge           Charge          ....    0
 Multiplicity           Mult            ....    1
 Number of Electrons    NEL             ....  202
 Basis Dimension        Dim             ....  334

ORBITAL ENERGIES
----------------

  NO   OCC          E(Eh)            E(eV)
   0   2.0000     -88.044582     -2395.8149
   1   2.0000     -88.041875     -2395.7412
   2   2.0000     -87.987983     -2394.2747
   3   2.0000     -87.977932     -2394.0012
   4   2.0000     -76.425435     -2079.6418
   5   2.0000     -76.423046     -2079.5768
   6   2.0000     -18.792342      -511.3656
   7   2.0000     -18.789320      -511.2834
   8   2.0000     -18.786434      -511.2049
   9   2.0000     -18.784493      -511.1520
  10   2.0000      -9.959854      -271.0214
  11   2.0000      -9.955246      -270.8960
  12   2.0000      -9.951354      -270.7901
  13   2.0000      -9.946795      -270.6661
  14   2.0000      -9.941985      -270.5352
  15   2.0000      -9.889954      -269.1193
  16   2.0000      -9.884115      -268.9605
  17   2.0000      -9.881778      -268.8968
  18   2.0000      -9.880245      -268.8551
  19   2.0000      -7.689736      -209.2483
  20   2.0000      -7.686719      -209.1662
  21   2.0000      -7.632841      -207.7001
  22   2.0000      -7.622826      -207.4276
  23   2.0000      -6.422777      -174.7727
  24   2.0000      -6.420446      -174.7092
  25   2.0000      -5.717687      -155.5862
  26   2.0000      -5.714575      -155.5015
  27   2.0000      -5.713961      -155.4848
  28   2.0000      -5.711402      -155.4151
  29   2.0000      -5.706936      -155.2936
  30   2.0000      -5.703514      -155.2005
  31   2.0000      -5.661703      -154.0628
  32   2.0000      -5.653635      -153.8432
  33   2.0000      -5.652908      -153.8235
  34   2.0000      -5.651881      -153.7955
  35   2.0000      -5.643422      -153.5653
  36   2.0000      -5.642848      -153.5497
  37   2.0000      -4.644978      -126.3963
  38   2.0000      -4.644469      -126.3824
  39   2.0000      -4.643681      -126.3610
  40   2.0000      -4.643136      -126.3462
  41   2.0000      -4.642258      -126.3223
  42   2.0000      -4.640770      -126.2818
  43   2.0000      -0.984434       -26.7878
  44   2.0000      -0.984148       -26.7800
  45   2.0000      -0.942227       -25.6393
  46   2.0000      -0.941329       -25.6149
  47   2.0000      -0.761745       -20.7281
  48   2.0000      -0.720724       -19.6119
  49   2.0000      -0.710204       -19.3256
  50   2.0000      -0.690269       -18.7832
  51   2.0000      -0.685044       -18.6410
  52   2.0000      -0.674000       -18.3405
  53   2.0000      -0.648837       -17.6557
  54   2.0000      -0.634138       -17.2558
  55   2.0000      -0.601563       -16.3694
  56   2.0000      -0.592232       -16.1155
  57   2.0000      -0.570353       -15.5201
  58   2.0000      -0.567176       -15.4337
  59   2.0000      -0.562063       -15.2945
  60   2.0000      -0.498717       -13.5708
  61   2.0000      -0.488404       -13.2901
  62   2.0000      -0.477949       -13.0057
  63   2.0000      -0.469258       -12.7692
  64   2.0000      -0.452410       -12.3107
  65   2.0000      -0.447754       -12.1840
  66   2.0000      -0.438424       -11.9301
  67   2.0000      -0.435502       -11.8506
  68   2.0000      -0.428067       -11.6483
  69   2.0000      -0.417915       -11.3720
  70   2.0000      -0.407288       -11.0829
  71   2.0000      -0.398851       -10.8533
  72   2.0000      -0.391837       -10.6624
  73   2.0000      -0.388946       -10.5838
  74   2.0000      -0.381265       -10.3748
  75   2.0000      -0.376725       -10.2512
  76   2.0000      -0.361612        -9.8400
  77   2.0000      -0.354602        -9.6492
  78   2.0000      -0.352340        -9.5877
  79   2.0000      -0.350798        -9.5457
  80   2.0000      -0.347659        -9.4603
  81   2.0000      -0.344727        -9.3805
  82   2.0000      -0.340269        -9.2592
  83   2.0000      -0.337517        -9.1843
  84   2.0000      -0.335084        -9.1181
  85   2.0000      -0.312916        -8.5149
  86   2.0000      -0.309834        -8.4310
  87   2.0000      -0.294428        -8.0118
  88   2.0000      -0.291358        -7.9282
  89   2.0000      -0.289841        -7.8870
  90   2.0000      -0.280670        -7.6374
  91   2.0000      -0.276507        -7.5242
  92   2.0000      -0.268887        -7.3168
  93   2.0000      -0.264183        -7.1888
  94   2.0000      -0.254318        -6.9203
  95   2.0000      -0.234758        -6.3881
  96   2.0000      -0.218713        -5.9515
  97   2.0000      -0.214081        -5.8254
  98   2.0000      -0.202486        -5.5099
  99   2.0000      -0.193829        -5.2744
 100   2.0000      -0.188176        -5.1205
 101   0.0000      -0.043937        -1.1956
 102   0.0000      -0.034610        -0.9418
 103   0.0000      -0.009742        -0.2651
 104   0.0000       0.010067         0.2739
 105   0.0000       0.017551         0.4776

MULLIKEN ATOMIC CHARGES
-----------------------
   0 C :   -0.311857
   1 C :   -0.001902
   2 O :   -0.371940
   3 P :    0.619757
   4 S :   -0.314821
   5 O :   -0.361078
   6 C :   -0.002118
   7 C :   -0.303869
   8 S :   -0.102828
   9 C :   -0.341688
  10 S :   -0.132939
  11 P :    0.604477
  12 S :   -0.308807
  13 O :   -0.377690
  14 C :   -0.039672
  15 C :   -0.273279
  16 O :   -0.356436
  17 C :   -0.015429
  18 C :   -0.310554
  19 H :    0.119244
  20 H :    0.118678
  21 H :    0.112164
  22 H :    0.109288
  23 H :    0.104305
  24 H :    0.122969
  25 H :    0.102611
  26 H :    0.111693
  27 H :    0.114382
  28 H :    0.122495
  29 H :    0.181233
  30 H :    0.214980
  31 H :    0.102361
  32 H :    0.132385
  33 H :    0.115031
  34 H :    0.109902
  35 H :    0.108485
  36 H :    0.115340
  37 H :    0.118523
  38 H :    0.114867
  39 H :    0.126259
  40 H :    0.125480
Sum of atomic charges:   -0.0000000

LOEWDIN ATOMIC CHARGES
----------------------
   0 C :   -0.369411
   1 C :   -0.119333
   2 O :   -0.245967
   3 P :    0.576303
   4 S :   -0.303445
   5 O :   -0.235265
   6 C :   -0.115425
   7 C :   -0.366779
   8 S :    0.085347
   9 C :   -0.476896
  10 S :    0.062275
  11 P :    0.563496
  12 S :   -0.297098
  13 O :   -0.246896
  14 C :   -0.127748
  15 C :   -0.351716
  16 O :   -0.232571
  17 C :   -0.113575
  18 C :   -0.367145
  19 H :    0.124347
  20 H :    0.118659
  21 H :    0.130165
  22 H :    0.109579
  23 H :    0.118333
  24 H :    0.112322
  25 H :    0.117573
  26 H :    0.130483
  27 H :    0.125256
  28 H :    0.121354
  29 H :    0.134456
  30 H :    0.126752
  31 H :    0.105748
  32 H :    0.109188
  33 H :    0.126571
  34 H :    0.123121
  35 H :    0.129075
  36 H :    0.125045
  37 H :    0.110956
  38 H :    0.132085
  39 H :    0.120139
  40 H :    0.130641

  Mayer bond orders larger than 0.100000
B(  0-C ,  1-C ) :   1.1664 B(  0-C , 19-H ) :   0.9429 B(  0-C , 20-H ) :   0.9373
B(  0-C , 21-H ) :   0.9378 B(  1-C ,  2-O ) :   0.9149 B(  1-C , 22-H ) :   0.9159
B(  1-C , 23-H ) :   0.9341 B(  2-O ,  3-P ) :   1.0996 B(  3-P ,  4-S ) :   1.5921
B(  3-P ,  5-O ) :   1.1292 B(  3-P ,  8-S ) :   0.9559 B(  4-S ,  8-S ) :   0.1162
B(  5-O ,  6-C ) :   0.8997 B(  6-C ,  7-C ) :   1.1630 B(  6-C , 24-H ) :   0.9179
B(  6-C , 25-H ) :   0.9350 B(  7-C , 26-H ) :   0.9385 B(  7-C , 27-H ) :   0.9446
B(  7-C , 28-H ) :   0.9346 B(  8-S ,  9-C ) :   0.9846 B(  9-C , 10-S ) :   1.0205
B(  9-C , 29-H ) :   0.9080 B(  9-C , 30-H ) :   0.8471 B( 10-S , 11-P ) :   0.9192
B( 10-S , 12-S ) :   0.1067 B( 11-P , 12-S ) :   1.6574 B( 11-P , 13-O ) :   1.0864
B( 11-P , 16-O ) :   1.1544 B( 13-O , 14-C ) :   0.9014 B( 14-C , 15-C ) :   1.1549
B( 14-C , 31-H ) :   0.9273 B( 14-C , 32-H ) :   0.8991 B( 15-C , 33-H ) :   0.9500
B( 15-C , 34-H ) :   0.9508 B( 15-C , 35-H ) :   0.9426 B( 16-O , 17-C ) :   0.9012
B( 17-C , 18-C ) :   1.1678 B( 17-C , 36-H ) :   0.9342 B( 17-C , 37-H ) :   0.9214
B( 18-C , 38-H ) :   0.9348 B( 18-C , 39-H ) :   0.9370 B( 18-C , 40-H ) :   0.9428

Dispersion correction           -0.066688455
FINAL SINGLE POINT ENERGY     -2929.517600632156

DIPOLE MOMENT
-------------

Method             : SCF
Type of density    : Electron Density
Multiplicity       :   1
Irrep              :   0
Energy             : -2929.6366033646754659 Eh
Relativity type    :
Basis              : AO
                                X                 Y                 Z
Electronic contribution:     -2.773706925       2.909379195     -12.268386307
Nuclear contribution   :      2.767711585      -3.970384955      12.951239706
                        -----------------------------------------
Total Dipole Moment    :     -0.005995340      -1.061005760       0.682853399
                        -----------------------------------------
Magnitude (a.u.)       :      1.261767780
Magnitude (Debye)      :      3.207158820

Rotational constants in cm-1:             0.013086             0.005047             0.004620
Rotational constants in MHz :           392.309178           151.292629           138.491260

                             ****ORCA TERMINATED NORMALLY****
TOTAL RUN TIME: 0 days 0 hours 0 minutes 21 seconds 139 msec
