                         Program Version 6.0.0  -   RELEASE  -
|  1> ! pbe def2-sv(p) def2/J RI DEFGRID1 loosescf d4 GCP(DFT/SV(P)) printgap
|  2> %output
|  3>     printlevel normal
|  4> end
|  5> * xyz 0 1
|  6> C 3.5676867403 0.6913395326 0.0019080746
|  7> C 3.5677190034 -0.6912762146 0.0023389453
|  8> C 2.3691076273 -1.3869440539 0.000787639
|  9> C 1.1686191597 -0.6973195559 -0.0010320512
| 10> C 1.1685940337 0.6973082639 -0.0012538751
| 11> C 2.3690460136 1.38695592 0.0001579848
| 12> O 4.1331e-06 1.4301875935 -0.0027261345
| 13> C -1.1685931235 0.6972781925 -0.0010982105
| 14> C -2.3690896922 1.3869075282 0.0008455563
| 15> C -3.5677506064 0.6913263389 0.0023823717
| 16> C -3.5677207786 -0.691277935 0.0018546211
| 17> C -2.3690783231 -1.3868995877 7.21576e-05
| 18> C -1.1685894789 -0.6973403591 -0.0012884214
| 19> O 1.7397e-05 -1.430227648 -0.0025685764
| 20> H 4.4973743521 1.236650544 0.0032293918
| 21> H 4.4972802653 -1.2366857908 0.0038076808
| 22> H 2.3396325635 -2.4642863167 0.0009336718
| 23> H 2.3396897399 2.4643116765 -0.0001363691
| 24> H -2.3395284879 2.4642393913 0.0012130082
| 25> H -4.4972011292 1.236832628 0.0040734205
| 26> H -4.4972824236 -1.2368194202 0.0033580689
| 27> H -2.3397176611 -2.4642989 -5.63435e-05
| 28> *
| 29>
| 30>                          ****END OF INPUT****

CARTESIAN COORDINATES (ANGSTROEM)
---------------------------------
  C      3.567687    0.691340    0.001908
  C      3.567719   -0.691276    0.002339
  C      2.369108   -1.386944    0.000788
  C      1.168619   -0.697320   -0.001032
  C      1.168594    0.697308   -0.001254
  C      2.369046    1.386956    0.000158
  O      0.000004    1.430188   -0.002726
  C     -1.168593    0.697278   -0.001098
  C     -2.369090    1.386908    0.000846
  C     -3.567751    0.691326    0.002382
  C     -3.567721   -0.691278    0.001855
  C     -2.369078   -1.386900    0.000072
  C     -1.168589   -0.697340   -0.001288
  O      0.000017   -1.430228   -0.002569
  H      4.497374    1.236651    0.003229
  H      4.497280   -1.236686    0.003808
  H      2.339633   -2.464286    0.000934
  H      2.339690    2.464312   -0.000136
  H     -2.339528    2.464239    0.001213
  H     -4.497201    1.236833    0.004073
  H     -4.497282   -1.236819    0.003358
  H     -2.339718   -2.464299   -0.000056

 Total Charge           Charge          ....    0
 Multiplicity           Mult            ....    1
 Number of Electrons    NEL             ....   96
 Basis Dimension        Dim             ....  212

ORBITAL ENERGIES
----------------

  NO   OCC          E(Eh)            E(eV)
   0   2.0000     -18.817226      -512.0428
   1   2.0000     -18.817049      -512.0379
   2   2.0000      -9.963241      -271.1136
   3   2.0000      -9.963213      -271.1128
   4   2.0000      -9.963045      -271.1082
   5   2.0000      -9.962969      -271.1062
   6   2.0000      -9.900488      -269.4060
   7   2.0000      -9.900416      -269.4040
   8   2.0000      -9.900382      -269.4031
   9   2.0000      -9.900361      -269.4025
  10   2.0000      -9.898022      -269.3389
  11   2.0000      -9.898013      -269.3386
  12   2.0000      -9.897770      -269.3320
  13   2.0000      -9.897767      -269.3319
  14   2.0000      -1.016343       -27.6561
  15   2.0000      -0.981915       -26.7193
  16   2.0000      -0.799103       -21.7447
  17   2.0000      -0.773348       -21.0439
  18   2.0000      -0.704848       -19.1799
  19   2.0000      -0.695738       -18.9320
  20   2.0000      -0.670053       -18.2331
  21   2.0000      -0.652368       -17.7518
  22   2.0000      -0.599224       -16.3057
  23   2.0000      -0.580614       -15.7993
  24   2.0000      -0.547450       -14.8969
  25   2.0000      -0.542278       -14.7561
  26   2.0000      -0.515118       -14.0171
  27   2.0000      -0.468225       -12.7410
  28   2.0000      -0.458282       -12.4705
  29   2.0000      -0.433346       -11.7919
  30   2.0000      -0.431314       -11.7367
  31   2.0000      -0.428637       -11.6638
  32   2.0000      -0.399384       -10.8678
  33   2.0000      -0.398793       -10.8517
  34   2.0000      -0.393325       -10.7029
  35   2.0000      -0.365794        -9.9538
  36   2.0000      -0.365273        -9.9396
  37   2.0000      -0.350294        -9.5320
  38   2.0000      -0.347431        -9.4541
  39   2.0000      -0.342403        -9.3173
  40   2.0000      -0.325366        -8.8537
  41   2.0000      -0.324818        -8.8387
  42   2.0000      -0.303138        -8.2488
  43   2.0000      -0.289618        -7.8809
  44   2.0000      -0.243158        -6.6167
  45   2.0000      -0.242574        -6.6008
  46   2.0000      -0.217885        -5.9290
  47   2.0000      -0.175485        -4.7752
  48   0.0000      -0.049544        -1.3482
  49   0.0000      -0.039662        -1.0793
  50   0.0000      -0.039103        -1.0641
  51   0.0000      -0.006582        -0.1791
  52   0.0000       0.025953         0.7062

MULLIKEN ATOMIC CHARGES
-----------------------
   0 C :   -0.040800
   1 C :   -0.040818
   2 C :   -0.159794
   3 C :    0.201755
   4 C :    0.201805
   5 C :   -0.159840
   6 O :   -0.216765
   7 C :    0.201720
   8 C :   -0.159790
   9 C :   -0.040770
  10 C :   -0.040794
  11 C :   -0.159887
  12 C :    0.201813
  13 O :   -0.216782
  14 H :    0.057184
  15 H :    0.057160
  16 H :    0.050060
  17 H :    0.050067
  18 H :    0.050056
  19 H :    0.057143
  20 H :    0.057190
  21 H :    0.050087
Sum of atomic charges:   -0.0000000

LOEWDIN ATOMIC CHARGES
----------------------
   0 C :   -0.127945
   1 C :   -0.127955
   2 C :   -0.135512
   3 C :    0.017351
   4 C :    0.017343
   5 C :   -0.135512
   6 O :   -0.032661
   7 C :    0.017349
   8 C :   -0.135510
   9 C :   -0.127955
  10 C :   -0.127941
  11 C :   -0.135513
  12 C :    0.017343
  13 O :   -0.032673
  14 H :    0.127070
  15 H :    0.127071
  16 H :    0.135376
  17 H :    0.135378
  18 H :    0.135373
  19 H :    0.127076
  20 H :    0.127071
  21 H :    0.135376

  Mayer bond orders larger than 0.100000
B(  0-C ,  1-C ) :   1.3698 B(  0-C ,  5-C ) :   1.3250 B(  0-C , 14-H ) :   0.9695
B(  1-C ,  2-C ) :   1.3250 B(  1-C , 15-H ) :   0.9695 B(  2-C ,  3-C ) :   1.3862
B(  2-C , 16-H ) :   0.9665 B(  3-C ,  4-C ) :   1.2839 B(  3-C , 13-O ) :   1.0542
B(  4-C ,  5-C ) :   1.3861 B(  4-C ,  6-O ) :   1.0542 B(  5-C , 17-H ) :   0.9666
B(  6-O ,  7-C ) :   1.0542 B(  7-C ,  8-C ) :   1.3862 B(  7-C , 12-C ) :   1.2839
B(  8-C ,  9-C ) :   1.3250 B(  8-C , 18-H ) :   0.9665 B(  9-C , 10-C ) :   1.3697
B(  9-C , 19-H ) :   0.9696 B( 10-C , 11-C ) :   1.3251 B( 10-C , 20-H ) :   0.9695
B( 11-C , 12-C ) :   1.3862 B( 11-C , 21-H ) :   0.9665 B( 12-C , 13-O ) :   1.0542

Dispersion correction           -0.028945121
FINAL SINGLE POINT ENERGY      -611.279591795327

DIPOLE MOMENT
-------------

Method             : SCF
Type of density    : Electron Density
Multiplicity       :   1
Irrep              :   0
Energy             :  -611.3365959699774521 Eh
Relativity type    :
Basis              : AO
                                X                 Y                 Z
Electronic contribution:     -0.000222980       0.000059394      -0.013590968
Nuclear contribution   :      0.000232253      -0.000053307       0.015328771
                        -----------------------------------------
Total Dipole Moment    :      0.000009273       0.000006087       0.001737803
                        -----------------------------------------
Magnitude (a.u.)       :      0.001737838
Magnitude (Debye)      :      0.004417233

Rotational constants in cm-1:             0.071783             0.016049             0.013116
Rotational constants in MHz :          2152.000098           481.124189           393.213584

                             ****ORCA TERMINATED NORMALLY****
TOTAL RUN TIME: 0 days 0 hours 0 minutes 16 seconds 487 msec
