                         Program Version 6.0.0  -   RELEASE  -
|  1> ! pbe def2-sv(p) def2/J RI DEFGRID1 loosescf d4 GCP(DFT/SV(P)) printgap
|  2> %output
|  3>     printlevel normal
|  4> end
|  5> * xyz 0 1
|  6> C 2.9188698976 -1.407922729 -3.1924395646
|  7> C 3.7468648587 -0.4845823869 -2.3223554437
|  8> O 3.3724715331 -0.5890835812 -0.9413580947
|  9> P 1.9567908236 -0.0788861062 -0.4057633277
| 10> S 1.4661514209 1.6286266764 -1.250741336
| 11> O 2.2072464733 -0.0813838388 1.156581912
| 12> C 2.8997992658 1.0105570008 1.8021171406
| 13> C 2.6408797581 0.9095688789 3.2900506859
| 14> S 0.7794372829 -1.8275817872 -0.560448565
| 15> C -0.1924948659 -1.9002862158 0.982290289
| 16> S -1.965082328 -1.6436393078 0.7308244356
| 17> P -1.8629731841 0.4532901547 0.4104606953
| 18> S -0.6805125201 1.4238350882 1.6261575783
| 19> O -3.3813310056 0.9219807102 0.4176475078
| 20> C -4.0867861928 1.2815621032 1.6205268154
| 21> C -4.2823439889 0.1024157676 2.5509183207
| 22> O -1.4841594429 0.6170619079 -1.1102080528
| 23> C -2.323112523 0.1057468954 -2.1819621869
| 24> C -1.4292448743 -0.4626326094 -3.2641277275
| 25> H 2.9943818082 -2.4324628097 -2.8377673232
| 26> H 1.8731623745 -1.1008062206 -3.1529461017
| 27> H 3.2659160465 -1.3502846837 -4.2188384822
| 28> H 3.620744547 0.5573491297 -2.6358856409
| 29> H 4.8040060843 -0.7524244699 -2.3327033232
| 30> H 3.9625528151 0.9181059205 1.5658806238
| 31> H 2.5193750161 1.9531725259 1.3933143666
| 32> H 1.5791667806 1.0370557908 3.4880471058
| 33> H 2.9613685964 -0.0607002269 3.6580675436
| 34> H 3.1937898086 1.6921001693 3.7988658733
| 35> H 0.1874965883 -1.1543536062 1.6793993886
| 36> H -0.0811508308 -2.9077508403 1.3736419125
| 37> H -3.5293907036 2.0796621555 2.1205197641
| 38> H -5.0382161105 1.6682917282 1.2525472287
| 39> H -4.7268471968 -0.7331714418 2.0162214116
| 40> H -3.3247135827 -0.2118558458 2.9623897906
| 41> H -4.9347857208 0.3978686618 3.366253462
| 42> H -2.9944716624 -0.655109244 -1.773707936
| 43> H -2.907877501 0.9517690841 -2.5464605318
| 44> H -0.9081767923 -1.3462976147 -2.902524612
| 45> H -2.0365304588 -0.7302607085 -4.1224945092
| 46> H -0.6949931009 0.2833090291 -3.5595431812
| 47> *
| 48>
| 49>                          ****END OF INPUT****

CARTESIAN COORDINATES (ANGSTROEM)
---------------------------------
  C      2.918870   -1.407923   -3.192440
  C      3.746865   -0.484582   -2.322355
  O      3.372472   -0.589084   -0.941358
  P      1.956791   -0.078886   -0.405763
  S      1.466151    1.628627   -1.250741
  O      2.207246   -0.081384    1.156582
  C      2.899799    1.010557    1.802117
  C      2.640880    0.909569    3.290051
  S      0.779437   -1.827582   -0.560449
  C     -0.192495   -1.900286    0.982290
  S     -1.965082   -1.643639    0.730824
  P     -1.862973    0.453290    0.410461
  S     -0.680513    1.423835    1.626158
  O     -3.381331    0.921981    0.417648
  C     -4.086786    1.281562    1.620527
  C     -4.282344    0.102416    2.550918
  O     -1.484159    0.617062   -1.110208
  C     -2.323113    0.105747   -2.181962
  C     -1.429245   -0.462633   -3.264128
  H      2.994382   -2.432463   -2.837767
  H      1.873162   -1.100806   -3.152946
  H      3.265916   -1.350285   -4.218838
  H      3.620745    0.557349   -2.635886
  H      4.804006   -0.752424   -2.332703
  H      3.962553    0.918106    1.565881
  H      2.519375    1.953173    1.393314
  H      1.579167    1.037056    3.488047
  H      2.961369   -0.060700    3.658068
  H      3.193790    1.692100    3.798866
  H      0.187497   -1.154354    1.679399
  H     -0.081151   -2.907751    1.373642
  H     -3.529391    2.079662    2.120520
  H     -5.038216    1.668292    1.252547
  H     -4.726847   -0.733171    2.016221
  H     -3.324714   -0.211856    2.962390
  H     -4.934786    0.397869    3.366253
  H     -2.994472   -0.655109   -1.773708
  H     -2.907878    0.951769   -2.546461
  H     -0.908177   -1.346298   -2.902525
  H     -2.036530   -0.730261   -4.122495
  H     -0.694993    0.283309   -3.559543

 Total Charge           Charge          ....    0
 Multiplicity           Mult            ....    1
 Number of Electrons    NEL             ....  202
 Basis Dimension        Dim             ....  334

ORBITAL ENERGIES
----------------

  NO   OCC          E(Eh)            E(eV)
   0   2.0000     -88.042592     -2395.7607
   1   2.0000     -88.037957     -2395.6346
   2   2.0000     -87.985118     -2394.1968
   3   2.0000     -87.972842     -2393.8627
   4   2.0000     -76.424469     -2079.6155
   5   2.0000     -76.416837     -2079.4078
   6   2.0000     -18.794116      -511.4139
   7   2.0000     -18.784790      -511.1601
   8   2.0000     -18.784165      -511.1431
   9   2.0000     -18.779410      -511.0137
  10   2.0000      -9.956841      -270.9394
  11   2.0000      -9.954319      -270.8708
  12   2.0000      -9.950099      -270.7560
  13   2.0000      -9.943637      -270.5801
  14   2.0000      -9.943573      -270.5784
  15   2.0000      -9.885780      -269.0057
  16   2.0000      -9.882145      -268.9068
  17   2.0000      -9.878640      -268.8115
  18   2.0000      -9.877272      -268.7742
  19   2.0000      -7.687807      -209.1959
  20   2.0000      -7.683209      -209.0707
  21   2.0000      -7.630111      -207.6259
  22   2.0000      -7.617748      -207.2895
  23   2.0000      -6.421994      -174.7513
  24   2.0000      -6.414492      -174.5472
  25   2.0000      -5.715516      -155.5271
  26   2.0000      -5.712278      -155.4390
  27   2.0000      -5.711522      -155.4184
  28   2.0000      -5.707483      -155.3085
  29   2.0000      -5.704955      -155.2397
  30   2.0000      -5.699886      -155.1018
  31   2.0000      -5.658953      -153.9879
  32   2.0000      -5.650635      -153.7616
  33   2.0000      -5.650372      -153.7544
  34   2.0000      -5.646733      -153.6554
  35   2.0000      -5.638633      -153.4350
  36   2.0000      -5.637593      -153.4067
  37   2.0000      -4.644883      -126.3937
  38   2.0000      -4.643689      -126.3612
  39   2.0000      -4.642240      -126.3218
  40   2.0000      -4.637139      -126.1830
  41   2.0000      -4.636342      -126.1613
  42   2.0000      -4.634767      -126.1184
  43   2.0000      -0.986322       -26.8392
  44   2.0000      -0.978057       -26.6143
  45   2.0000      -0.941424       -25.6175
  46   2.0000      -0.936398       -25.4807
  47   2.0000      -0.760693       -20.6995
  48   2.0000      -0.717368       -19.5206
  49   2.0000      -0.706389       -19.2218
  50   2.0000      -0.687820       -18.7165
  51   2.0000      -0.681218       -18.5369
  52   2.0000      -0.671318       -18.2675
  53   2.0000      -0.648745       -17.6532
  54   2.0000      -0.629105       -17.1188
  55   2.0000      -0.596877       -16.2418
  56   2.0000      -0.584678       -15.9099
  57   2.0000      -0.567841       -15.4517
  58   2.0000      -0.563953       -15.3460
  59   2.0000      -0.558302       -15.1922
  60   2.0000      -0.501967       -13.6592
  61   2.0000      -0.496359       -13.5066
  62   2.0000      -0.472504       -12.8575
  63   2.0000      -0.465153       -12.6575
  64   2.0000      -0.450586       -12.2611
  65   2.0000      -0.444282       -12.0895
  66   2.0000      -0.438625       -11.9356
  67   2.0000      -0.433087       -11.7849
  68   2.0000      -0.424832       -11.5603
  69   2.0000      -0.421369       -11.4660
  70   2.0000      -0.412965       -11.2374
  71   2.0000      -0.390593       -10.6286
  72   2.0000      -0.385456       -10.4888
  73   2.0000      -0.382297       -10.4028
  74   2.0000      -0.378616       -10.3027
  75   2.0000      -0.365975        -9.9587
  76   2.0000      -0.363667        -9.8959
  77   2.0000      -0.353769        -9.6265
  78   2.0000      -0.350075        -9.5260
  79   2.0000      -0.349271        -9.5041
  80   2.0000      -0.347446        -9.4545
  81   2.0000      -0.339224        -9.2308
  82   2.0000      -0.337020        -9.1708
  83   2.0000      -0.331552        -9.0220
  84   2.0000      -0.326237        -8.8774
  85   2.0000      -0.312943        -8.5156
  86   2.0000      -0.304485        -8.2855
  87   2.0000      -0.299005        -8.1363
  88   2.0000      -0.294611        -8.0168
  89   2.0000      -0.289989        -7.8910
  90   2.0000      -0.282641        -7.6911
  91   2.0000      -0.267067        -7.2673
  92   2.0000      -0.266279        -7.2458
  93   2.0000      -0.260891        -7.0992
  94   2.0000      -0.252772        -6.8783
  95   2.0000      -0.235224        -6.4008
  96   2.0000      -0.218864        -5.9556
  97   2.0000      -0.210561        -5.7297
  98   2.0000      -0.201351        -5.4790
  99   2.0000      -0.188430        -5.1274
 100   2.0000      -0.176414        -4.8005
 101   0.0000      -0.042017        -1.1433
 102   0.0000      -0.027779        -0.7559
 103   0.0000      -0.021772        -0.5925
 104   0.0000       0.003191         0.0868
 105   0.0000       0.018278         0.4974

MULLIKEN ATOMIC CHARGES
-----------------------
   0 C :   -0.336850
   1 C :    0.000682
   2 O :   -0.377422
   3 P :    0.612625
   4 S :   -0.305410
   5 O :   -0.376278
   6 C :   -0.002251
   7 C :   -0.289962
   8 S :   -0.107371
   9 C :   -0.356140
  10 S :   -0.100641
  11 P :    0.597907
  12 S :   -0.305093
  13 O :   -0.380910
  14 C :    0.001286
  15 C :   -0.319894
  16 O :   -0.337973
  17 C :   -0.004304
  18 C :   -0.304462
  19 H :    0.120769
  20 H :    0.134876
  21 H :    0.113565
  22 H :    0.106482
  23 H :    0.101265
  24 H :    0.101088
  25 H :    0.114284
  26 H :    0.131659
  27 H :    0.110685
  28 H :    0.108352
  29 H :    0.213654
  30 H :    0.183514
  31 H :    0.112984
  32 H :    0.105460
  33 H :    0.117181
  34 H :    0.127953
  35 H :    0.114495
  36 H :    0.097358
  37 H :    0.108470
  38 H :    0.132811
  39 H :    0.102135
  40 H :    0.133417
Sum of atomic charges:   -0.0000000

LOEWDIN ATOMIC CHARGES
----------------------
   0 C :   -0.371607
   1 C :   -0.124720
   2 O :   -0.250710
   3 P :    0.564402
   4 S :   -0.300523
   5 O :   -0.241969
   6 C :   -0.116342
   7 C :   -0.354338
   8 S :    0.082228
   9 C :   -0.477714
  10 S :    0.068434
  11 P :    0.570098
  12 S :   -0.292660
  13 O :   -0.247960
  14 C :   -0.115678
  15 C :   -0.371727
  16 O :   -0.226902
  17 C :   -0.109958
  18 C :   -0.360806
  19 H :    0.124944
  20 H :    0.120421
  21 H :    0.131384
  22 H :    0.106364
  23 H :    0.116978
  24 H :    0.111511
  25 H :    0.111412
  26 H :    0.125067
  27 H :    0.124108
  28 H :    0.129599
  29 H :    0.132362
  30 H :    0.139153
  31 H :    0.113228
  32 H :    0.119045
  33 H :    0.123196
  34 H :    0.121366
  35 H :    0.131874
  36 H :    0.101945
  37 H :    0.117967
  38 H :    0.119706
  39 H :    0.126178
  40 H :    0.130644

  Mayer bond orders larger than 0.100000
B(  0-C ,  1-C ) :   1.1618 B(  0-C , 19-H ) :   0.9431 B(  0-C , 20-H ) :   0.9286
B(  0-C , 21-H ) :   0.9385 B(  1-C ,  2-O ) :   0.9213 B(  1-C , 22-H ) :   0.9075
B(  1-C , 23-H ) :   0.9318 B(  2-O ,  3-P ) :   1.0778 B(  3-P ,  4-S ) :   1.6451
B(  3-P ,  5-O ) :   1.1176 B(  3-P ,  8-S ) :   0.9479 B(  4-S ,  8-S ) :   0.1087
B(  5-O ,  6-C ) :   0.8895 B(  6-C ,  7-C ) :   1.1638 B(  6-C , 24-H ) :   0.9313
B(  6-C , 25-H ) :   0.9101 B(  7-C , 26-H ) :   0.9437 B(  7-C , 27-H ) :   0.9492
B(  7-C , 28-H ) :   0.9412 B(  8-S ,  9-C ) :   0.9954 B(  9-C , 10-S ) :   1.0023
B(  9-C , 29-H ) :   0.8606 B(  9-C , 30-H ) :   0.9108 B( 10-S , 11-P ) :   0.9392
B( 10-S , 12-S ) :   0.1059 B( 11-P , 12-S ) :   1.6317 B( 11-P , 13-O ) :   1.0893
B( 11-P , 16-O ) :   1.1564 B( 13-O , 14-C ) :   0.9064 B( 14-C , 15-C ) :   1.1661
B( 14-C , 31-H ) :   0.9182 B( 14-C , 32-H ) :   0.9344 B( 15-C , 33-H ) :   0.9438
B( 15-C , 34-H ) :   0.9344 B( 15-C , 35-H ) :   0.9370 B( 16-O , 17-C ) :   0.8858
B( 17-C , 18-C ) :   1.1646 B( 17-C , 36-H ) :   0.9130 B( 17-C , 37-H ) :   0.9339
B( 18-C , 38-H ) :   0.9350 B( 18-C , 39-H ) :   0.9365 B( 18-C , 40-H ) :   0.9406

Dispersion correction           -0.068689506
FINAL SINGLE POINT ENERGY     -2929.512647023767

DIPOLE MOMENT
-------------

Method             : SCF
Type of density    : Electron Density
Multiplicity       :   1
Irrep              :   0
Energy             : -2929.6297501360099886 Eh
Relativity type    :
Basis              : AO
                                X                 Y                 Z
Electronic contribution:     -0.224478343       1.342970361       1.413658964
Nuclear contribution   :     -0.263557939      -2.089064404      -1.347752011
                        -----------------------------------------
Total Dipole Moment    :     -0.488036282      -0.746094043       0.065906953
                        -----------------------------------------
Magnitude (a.u.)       :      0.893968377
Magnitude (Debye)      :      2.272287034

Rotational constants in cm-1:             0.011567             0.006172             0.005182
Rotational constants in MHz :           346.774439           185.022787           155.341270

                             ****ORCA TERMINATED NORMALLY****
TOTAL RUN TIME: 0 days 0 hours 0 minutes 22 seconds 120 msec
