                         Program Version 6.0.1  -  RELEASE   -
|  1> ! pbe def2-sv(p) def2/J RI DEFGRID1 loosescf d4 GCP(DFT/SV(P)) printgap
|  2> %output
|  3>     printlevel normal
|  4> end
|  5> * xyz 0 1
|  6> C 4.6690620343 0.2971049003 0.5683286242
|  7> C 4.41426603 -0.765947351 -0.4855595605
|  8> O 3.0243278302 -0.7218423722 -0.871141565
|  9> C 2.3189779486 -1.8407358281 -0.8808306878
| 10> O 2.77127295 -2.9353396691 -0.6321631255
| 11> C 0.8715357131 -1.6000664722 -1.2543232048
| 12> C 0.5251876945 -0.1220149329 -1.2551580014
| 13> H 1.0324657492 0.4234319579 -2.052711738
| 14> C 0.8357126097 0.5331560344 0.0752102706
| 15> O 0.8495220693 -0.0619093699 1.1316580566
| 16> O 1.0499773355 1.820764455 -0.057084268
| 17> C 1.3280519653 2.582217775 1.1368557476
| 18> C 1.2914910218 4.0538847519 0.7765135357
| 19> S -1.2539363721 0.162564799 -1.5693363643
| 20> P -2.1144176595 -0.1890163053 0.3478562249
| 21> S -1.7506673037 -1.8751277332 1.2735915838
| 22> O -1.8362237435 1.1063328987 1.2179395999
| 23> C -2.2924565527 2.4130744921 0.799625814
| 24> O -3.6566028329 0.0234214782 -0.0082067102
| 25> C -4.397481593 -0.9739304481 -0.7215604732
| 26> H 4.0408091062 0.1159616892 1.43819074
| 27> H 5.7106397901 0.2612422234 0.86970057
| 28> H 4.4450939199 1.2811212994 0.1657711468
| 29> H 4.6376492037 -1.7689804865 -0.1116224946
| 30> H 4.9940903544 -0.5727471966 -1.3911746115
| 31> H 0.2645749072 -2.1435326356 -0.5231818852
| 32> H 0.6839557292 -2.0402884403 -2.2350259669
| 33> H 0.5849921805 2.3154950641 1.8952024911
| 34> H 2.3126924043 2.2804572578 1.50638809
| 35> H 2.0297756431 4.2645921332 0.0090262211
| 36> H 0.310052499 4.3297617825 0.4033917639
| 37> H 1.5165933931 4.6412721242 1.660349002
| 38> H -1.8433551806 2.6737074554 -0.159136132
| 39> H -1.9652405103 3.0916903832 1.5831686392
| 40> H -3.3768686043 2.414641153 0.7165194377
| 41> H -4.1696506686 -1.9647188192 -0.3253217307
| 42> H -4.1483698163 -0.9281290536 -1.7808916192
| 43> H -5.4450252841 -0.7319733856 -0.5613650668
| 44> *
| 45>
| 46>                          ****END OF INPUT****

CARTESIAN COORDINATES (ANGSTROEM)
---------------------------------
  C      4.669062    0.297105    0.568329
  C      4.414266   -0.765947   -0.485560
  O      3.024328   -0.721842   -0.871142
  C      2.318978   -1.840736   -0.880831
  O      2.771273   -2.935340   -0.632163
  C      0.871536   -1.600066   -1.254323
  C      0.525188   -0.122015   -1.255158
  H      1.032466    0.423432   -2.052712
  C      0.835713    0.533156    0.075210
  O      0.849522   -0.061909    1.131658
  O      1.049977    1.820764   -0.057084
  C      1.328052    2.582218    1.136856
  C      1.291491    4.053885    0.776514
  S     -1.253936    0.162565   -1.569336
  P     -2.114418   -0.189016    0.347856
  S     -1.750667   -1.875128    1.273592
  O     -1.836224    1.106333    1.217940
  C     -2.292457    2.413074    0.799626
  O     -3.656603    0.023421   -0.008207
  C     -4.397482   -0.973930   -0.721560
  H      4.040809    0.115962    1.438191
  H      5.710640    0.261242    0.869701
  H      4.445094    1.281121    0.165771
  H      4.637649   -1.768980   -0.111622
  H      4.994090   -0.572747   -1.391175
  H      0.264575   -2.143533   -0.523182
  H      0.683956   -2.040288   -2.235026
  H      0.584992    2.315495    1.895202
  H      2.312692    2.280457    1.506388
  H      2.029776    4.264592    0.009026
  H      0.310052    4.329762    0.403392
  H      1.516593    4.641272    1.660349
  H     -1.843355    2.673707   -0.159136
  H     -1.965241    3.091690    1.583169
  H     -3.376869    2.414641    0.716519
  H     -4.169651   -1.964719   -0.325322
  H     -4.148370   -0.928129   -1.780892
  H     -5.445025   -0.731973   -0.561365

 Total Charge           Charge          ....    0
 Multiplicity           Mult            ....    1
 Number of Electrons    NEL             ....  174
 Basis Dimension        Dim             ....  316

ORBITAL ENERGIES
----------------

  NO   OCC          E(Eh)            E(eV)
   0   2.0000     -88.044656     -2395.8169
   1   2.0000     -87.980321     -2394.0662
   2   2.0000     -76.427442     -2079.6964
   3   2.0000     -18.809910      -511.8437
   4   2.0000     -18.805689      -511.7288
   5   2.0000     -18.798999      -511.5468
   6   2.0000     -18.797447      -511.5045
   7   2.0000     -18.738940      -509.9125
   8   2.0000     -18.727882      -509.6116
   9   2.0000     -10.015745      -272.5423
  10   2.0000     -10.007330      -272.3133
  11   2.0000      -9.954251      -270.8689
  12   2.0000      -9.953181      -270.8398
  13   2.0000      -9.948350      -270.7084
  14   2.0000      -9.948069      -270.7007
  15   2.0000      -9.948044      -270.7000
  16   2.0000      -9.901665      -269.4380
  17   2.0000      -9.897270      -269.3184
  18   2.0000      -9.890795      -269.1422
  19   2.0000      -7.689430      -209.2400
  20   2.0000      -7.625465      -207.4994
  21   2.0000      -6.424467      -174.8186
  22   2.0000      -5.717111      -155.5705
  23   2.0000      -5.714014      -155.4862
  24   2.0000      -5.706566      -155.2835
  25   2.0000      -5.654693      -153.8720
  26   2.0000      -5.645738      -153.6284
  27   2.0000      -5.645631      -153.6254
  28   2.0000      -4.647523      -126.4655
  29   2.0000      -4.646341      -126.4334
  30   2.0000      -4.644475      -126.3826
  31   2.0000      -1.018780       -27.7224
  32   2.0000      -1.008255       -27.4360
  33   2.0000      -0.991514       -26.9805
  34   2.0000      -0.947224       -25.7753
  35   2.0000      -0.919249       -25.0140
  36   2.0000      -0.909461       -24.7477
  37   2.0000      -0.767539       -20.8858
  38   2.0000      -0.716066       -19.4852
  39   2.0000      -0.711889       -19.3715
  40   2.0000      -0.694793       -18.9063
  41   2.0000      -0.660255       -17.9665
  42   2.0000      -0.642261       -17.4768
  43   2.0000      -0.624569       -16.9954
  44   2.0000      -0.614720       -16.7274
  45   2.0000      -0.590732       -16.0746
  46   2.0000      -0.563607       -15.3365
  47   2.0000      -0.519907       -14.1474
  48   2.0000      -0.511895       -13.9294
  49   2.0000      -0.507639       -13.8136
  50   2.0000      -0.482241       -13.1224
  51   2.0000      -0.479500       -13.0479
  52   2.0000      -0.460013       -12.5176
  53   2.0000      -0.455290       -12.3891
  54   2.0000      -0.440356       -11.9827
  55   2.0000      -0.433125       -11.7859
  56   2.0000      -0.432810       -11.7774
  57   2.0000      -0.422226       -11.4894
  58   2.0000      -0.418548       -11.3893
  59   2.0000      -0.404788       -11.0148
  60   2.0000      -0.403073       -10.9682
  61   2.0000      -0.399801       -10.8791
  62   2.0000      -0.388198       -10.5634
  63   2.0000      -0.382931       -10.4201
  64   2.0000      -0.372255       -10.1296
  65   2.0000      -0.367883       -10.0106
  66   2.0000      -0.363149        -9.8818
  67   2.0000      -0.355247        -9.6667
  68   2.0000      -0.350871        -9.5477
  69   2.0000      -0.346353        -9.4248
  70   2.0000      -0.335182        -9.1208
  71   2.0000      -0.330299        -8.9879
  72   2.0000      -0.320121        -8.7109
  73   2.0000      -0.316852        -8.6220
  74   2.0000      -0.310580        -8.4513
  75   2.0000      -0.305748        -8.3198
  76   2.0000      -0.299641        -8.1536
  77   2.0000      -0.295841        -8.0503
  78   2.0000      -0.276679        -7.5288
  79   2.0000      -0.265762        -7.2317
  80   2.0000      -0.264781        -7.2051
  81   2.0000      -0.254841        -6.9346
  82   2.0000      -0.242874        -6.6089
  83   2.0000      -0.225801        -6.1444
  84   2.0000      -0.214250        -5.8300
  85   2.0000      -0.194605        -5.2955
  86   2.0000      -0.191853        -5.2206
  87   0.0000      -0.046617        -1.2685
  88   0.0000      -0.031731        -0.8634
  89   0.0000      -0.014420        -0.3924
  90   0.0000      -0.000793        -0.0216
  91   0.0000       0.019164         0.5215

MULLIKEN ATOMIC CHARGES
-----------------------
   0 C :   -0.308791
   1 C :   -0.024514
   2 O :   -0.255512
   3 C :    0.127885
   4 O :   -0.191301
   5 C :   -0.064181
   6 C :   -0.270543
   7 H :    0.136274
   8 C :    0.147367
   9 O :   -0.186441
  10 O :   -0.224929
  11 C :   -0.045950
  12 C :   -0.279518
  13 S :   -0.101056
  14 P :    0.590725
  15 S :   -0.263938
  16 O :   -0.368658
  17 C :   -0.117780
  18 O :   -0.391634
  19 C :   -0.102518
  20 H :    0.136846
  21 H :    0.114200
  22 H :    0.114745
  23 H :    0.123571
  24 H :    0.104046
  25 H :    0.146970
  26 H :    0.120534
  27 H :    0.125148
  28 H :    0.111553
  29 H :    0.115974
  30 H :    0.113570
  31 H :    0.113959
  32 H :    0.125007
  33 H :    0.130224
  34 H :    0.131776
  35 H :    0.122364
  36 H :    0.117929
  37 H :    0.126595
Sum of atomic charges:   -0.0000000

LOEWDIN ATOMIC CHARGES
----------------------
   0 C :   -0.354809
   1 C :   -0.109067
   2 O :   -0.063205
   3 C :    0.039399
   4 O :   -0.158270
   5 C :   -0.258481
   6 C :   -0.263928
   7 H :    0.141721
   8 C :   -0.011771
   9 O :   -0.149810
  10 O :   -0.053618
  11 C :   -0.108539
  12 C :   -0.350430
  13 S :    0.094114
  14 P :    0.566899
  15 S :   -0.273859
  16 O :   -0.238745
  17 C :   -0.215032
  18 O :   -0.258722
  19 C :   -0.215196
  20 H :    0.132474
  21 H :    0.130961
  22 H :    0.121529
  23 H :    0.124929
  24 H :    0.116693
  25 H :    0.148015
  26 H :    0.146951
  27 H :    0.121374
  28 H :    0.117382
  29 H :    0.127549
  30 H :    0.123343
  31 H :    0.132242
  32 H :    0.108971
  33 H :    0.122471
  34 H :    0.118786
  35 H :    0.113053
  36 H :    0.111402
  37 H :    0.123220

  Mayer bond orders larger than 0.100000
B(  0-C ,  1-C ) :   1.1687 B(  0-C , 20-H ) :   0.9415 B(  0-C , 21-H ) :   0.9420
B(  0-C , 22-H ) :   0.9449 B(  1-C ,  2-O ) :   0.9056 B(  1-C , 23-H ) :   0.9068
B(  1-C , 24-H ) :   0.9373 B(  2-O ,  3-C ) :   1.1970 B(  3-C ,  4-O ) :   2.0848
B(  3-C ,  5-C ) :   1.0186 B(  5-C ,  6-C ) :   1.0225 B(  5-C , 25-H ) :   0.8564
B(  5-C , 26-H ) :   0.8879 B(  6-C ,  7-H ) :   0.8788 B(  6-C ,  8-C ) :   0.9074
B(  6-C , 13-S ) :   0.9885 B(  8-C ,  9-O ) :   2.0234 B(  8-C , 10-O ) :   1.2418
B( 10-O , 11-C ) :   0.9003 B( 11-C , 12-C ) :   1.1566 B( 11-C , 27-H ) :   0.9185
B( 11-C , 28-H ) :   0.9260 B( 12-C , 29-H ) :   0.9472 B( 12-C , 30-H ) :   0.9489
B( 12-C , 31-H ) :   0.9433 B( 13-S , 14-P ) :   0.9599 B( 13-S , 15-S ) :   0.1170
B( 14-P , 15-S ) :   1.6970 B( 14-P , 16-O ) :   1.0899 B( 14-P , 18-O ) :   1.0632
B( 16-O , 17-C ) :   0.9141 B( 17-C , 32-H ) :   0.9302 B( 17-C , 33-H ) :   0.9531
B( 17-C , 34-H ) :   0.9441 B( 18-O , 19-C ) :   0.9277 B( 19-C , 35-H ) :   0.9303
B( 19-C , 36-H ) :   0.9509 B( 19-C , 37-H ) :   0.9585

Dispersion correction           -0.053379096
FINAL SINGLE POINT ENERGY     -1979.015716134337

DIPOLE MOMENT
-------------

Method             : SCF
Type of density    : Electron Density
Multiplicity       :   1
Irrep              :   0
Energy             : -1979.1466174190950369 Eh
Relativity type    :
Basis              : AO
                                X                 Y                 Z
Electronic contribution:    -12.934678990     -14.752042075      -1.643043018
Nuclear contribution   :     12.905583615      17.040693771       0.748131767
                        -----------------------------------------
Total Dipole Moment    :     -0.029095375       2.288651696      -0.894911252
                        -----------------------------------------
Magnitude (a.u.)       :      2.457567756
Magnitude (Debye)      :      6.246640807

Rotational constants in cm-1:             0.014082             0.007445             0.005774
Rotational constants in MHz :           422.180133           223.208350           173.113421

                             ****ORCA TERMINATED NORMALLY****
TOTAL RUN TIME: 0 days 0 hours 0 minutes 31 seconds 865 msec
