                         Program Version 6.0.0  -   RELEASE  -
|  1> ! pbe def2-sv(p) def2/J RI DEFGRID1 loosescf d4 GCP(DFT/SV(P)) printgap
|  2> %output
|  3>     printlevel normal
|  4> end
|  5> * xyz 0 1
|  6> C 2.6764555826 0.1901400206 0.2479225356
|  7> N 1.4243603908 -0.0836737292 -0.4239953812
|  8> C 0.5489954037 1.0816594669 -0.5338334878
|  9> C -0.5489983684 1.0818287699 0.5334329686
| 10> N -1.4242073104 -0.0836788891 0.4240587864
| 11> C -0.7363377689 -1.215195397 -0.1890763008
| 12> C 0.7363985639 -1.2153266637 0.1887855584
| 13> C -2.6766232552 0.190110684 -0.2473176054
| 14> H 3.2040041382 0.97754675 -0.2868721685
| 15> H 3.2845657887 -0.7130622688 0.225739124
| 16> H 2.5466366589 0.4952637116 1.2983935582
| 17> H 1.1448797559 1.9921122708 -0.4601308397
| 18> H 0.083720879 1.0653011149 -1.5269153812
| 19> H -0.0837918283 1.0661003103 1.5265694021
| 20> H -1.1450363883 1.9921474583 0.4592019921
| 21> H -1.2121892803 -2.1325142207 0.1701643395
| 22> H -0.8178691904 -1.1965900946 -1.2886256284
| 23> H 0.8179100514 -1.1969540015 1.2883511412
| 24> H 1.2122279798 -2.1326096648 -0.1706292305
| 25> H -3.2837916185 -0.7137421408 -0.2270019777
| 26> H -2.5470785884 0.497569965 -1.2971706669
| 27> H -3.205006727 0.9759264574 0.2890739996
| 28> *
| 29>
| 30>                          ****END OF INPUT****

CARTESIAN COORDINATES (ANGSTROEM)
---------------------------------
  C      2.676456    0.190140    0.247923
  N      1.424360   -0.083674   -0.423995
  C      0.548995    1.081659   -0.533833
  C     -0.548998    1.081829    0.533433
  N     -1.424207   -0.083679    0.424059
  C     -0.736338   -1.215195   -0.189076
  C      0.736399   -1.215327    0.188786
  C     -2.676623    0.190111   -0.247318
  H      3.204004    0.977547   -0.286872
  H      3.284566   -0.713062    0.225739
  H      2.546637    0.495264    1.298394
  H      1.144880    1.992112   -0.460131
  H      0.083721    1.065301   -1.526915
  H     -0.083792    1.066100    1.526569
  H     -1.145036    1.992147    0.459202
  H     -1.212189   -2.132514    0.170164
  H     -0.817869   -1.196590   -1.288626
  H      0.817910   -1.196954    1.288351
  H      1.212228   -2.132610   -0.170629
  H     -3.283792   -0.713742   -0.227002
  H     -2.547079    0.497570   -1.297171
  H     -3.205007    0.975926    0.289074

 Total Charge           Charge          ....    0
 Multiplicity           Mult            ....    1
 Number of Electrons    NEL             ....   64
 Basis Dimension        Dim             ....  140

ORBITAL ENERGIES
----------------

  NO   OCC          E(Eh)            E(eV)
   0   2.0000     -13.976035      -380.3072
   1   2.0000     -13.976014      -380.3067
   2   2.0000      -9.905808      -269.5507
   3   2.0000      -9.905807      -269.5507
   4   2.0000      -9.904864      -269.5251
   5   2.0000      -9.904830      -269.5241
   6   2.0000      -9.898283      -269.3460
   7   2.0000      -9.898267      -269.3455
   8   2.0000      -0.855550       -23.2807
   9   2.0000      -0.812209       -22.1013
  10   2.0000      -0.680730       -18.5236
  11   2.0000      -0.660611       -17.9761
  12   2.0000      -0.602898       -16.4057
  13   2.0000      -0.581010       -15.8101
  14   2.0000      -0.544439       -14.8149
  15   2.0000      -0.469757       -12.7827
  16   2.0000      -0.451477       -12.2853
  17   2.0000      -0.444738       -12.1019
  18   2.0000      -0.427049       -11.6206
  19   2.0000      -0.389728       -10.6050
  20   2.0000      -0.384101       -10.4519
  21   2.0000      -0.373624       -10.1668
  22   2.0000      -0.354356        -9.6425
  23   2.0000      -0.348532        -9.4840
  24   2.0000      -0.335321        -9.1246
  25   2.0000      -0.333192        -9.0666
  26   2.0000      -0.324929        -8.8418
  27   2.0000      -0.308816        -8.4033
  28   2.0000      -0.298854        -8.1322
  29   2.0000      -0.284411        -7.7392
  30   2.0000      -0.168061        -4.5732
  31   2.0000      -0.154298        -4.1987
  32   0.0000       0.028918         0.7869
  33   0.0000       0.052094         1.4176
  34   0.0000       0.071999         1.9592
  35   0.0000       0.072290         1.9671
  36   0.0000       0.086043         2.3414

MULLIKEN ATOMIC CHARGES
-----------------------
   0 C :   -0.167765
   1 N :   -0.313357
   2 C :   -0.048630
   3 C :   -0.048644
   4 N :   -0.313361
   5 C :   -0.056819
   6 C :   -0.056792
   7 C :   -0.167813
   8 H :    0.105387
   9 H :    0.102085
  10 H :    0.071142
  11 H :    0.082238
  12 H :    0.074998
  13 H :    0.075011
  14 H :    0.082227
  15 H :    0.088450
  16 H :    0.062266
  17 H :    0.062270
  18 H :    0.088443
  19 H :    0.102096
  20 H :    0.071149
  21 H :    0.105419
Sum of atomic charges:    0.0000000

LOEWDIN ATOMIC CHARGES
----------------------
   0 C :   -0.257586
   1 N :   -0.157055
   2 C :   -0.171214
   3 C :   -0.171220
   4 N :   -0.157080
   5 C :   -0.162572
   6 C :   -0.162553
   7 C :   -0.257579
   8 H :    0.112511
   9 H :    0.113761
  10 H :    0.086670
  11 H :    0.116280
  12 H :    0.108705
  13 H :    0.108701
  14 H :    0.116278
  15 H :    0.115208
  16 H :    0.095293
  17 H :    0.095295
  18 H :    0.115202
  19 H :    0.113772
  20 H :    0.086674
  21 H :    0.112507

  Mayer bond orders larger than 0.100000
B(  0-C ,  1-N ) :   1.0460 B(  0-C ,  8-H ) :   0.9566 B(  0-C ,  9-H ) :   0.9539
B(  0-C , 10-H ) :   0.9221 B(  1-N ,  2-C ) :   1.0473 B(  1-N ,  6-C ) :   1.0462
B(  2-C ,  3-C ) :   1.1662 B(  2-C , 11-H ) :   0.9134 B(  2-C , 12-H ) :   0.9034
B(  3-C ,  4-N ) :   1.0472 B(  3-C , 13-H ) :   0.9034 B(  3-C , 14-H ) :   0.9134
B(  4-N ,  5-C ) :   1.0462 B(  4-N ,  7-C ) :   1.0460 B(  5-C ,  6-C ) :   1.1720
B(  5-C , 15-H ) :   0.9183 B(  5-C , 16-H ) :   0.8791 B(  6-C , 17-H ) :   0.8791
B(  6-C , 18-H ) :   0.9183 B(  7-C , 19-H ) :   0.9539 B(  7-C , 20-H ) :   0.9221
B(  7-C , 21-H ) :   0.9566

Dispersion correction           -0.020576938
FINAL SINGLE POINT ENERGY      -345.700351555455

DIPOLE MOMENT
-------------

Method             : SCF
Type of density    : Electron Density
Multiplicity       :   1
Irrep              :   0
Energy             :  -345.7837831578881946 Eh
Relativity type    :
Basis              : AO
                                X                 Y                 Z
Electronic contribution:      0.000606428      -0.731143928      -0.000325850
Nuclear contribution   :     -0.000766928       0.915198173       0.000138880
                        -----------------------------------------
Total Dipole Moment    :     -0.000160500       0.184054245      -0.000186970
                        -----------------------------------------
Magnitude (a.u.)       :      0.184054409
Magnitude (Debye)      :      0.467829130

Rotational constants in cm-1:             0.144287             0.049863             0.041921
Rotational constants in MHz :          4325.614463          1494.850250          1256.745385

                             ****ORCA TERMINATED NORMALLY****
TOTAL RUN TIME: 0 days 0 hours 0 minutes 12 seconds 193 msec
