                         Program Version 6.0.0  -   RELEASE  -
|  1> ! pbe def2-sv(p) def2/J RI DEFGRID1 loosescf d4 GCP(DFT/SV(P)) printgap
|  2> %output
|  3>     printlevel normal
|  4> end
|  5> * xyz 0 1
|  6> C 4.4440179934 1.3444609996 0.6575616132
|  7> C 3.3460907291 1.2968659302 -0.385175617
|  8> O 2.6788134934 0.0198374782 -0.3771905942
|  9> P 1.6223994436 -0.3678493013 0.7587405445
| 10> S 0.8155682316 1.1235529196 1.723041795
| 11> O 2.3546252738 -1.3129283919 1.7995613014
| 12> C 3.1861495346 -2.4332777101 1.4062968759
| 13> C 4.3422021388 -2.5275163884 2.3814684295
| 14> S 0.4703582818 -1.7672239206 -0.3566667993
| 15> C 0.2930910396 -0.8557021963 -1.9174527856
| 16> S -0.2670051844 0.8516041187 -1.705739285
| 17> P -2.2257045363 0.3879617892 -1.095974294
| 18> S -3.1389494957 -1.0727716408 -2.0159294093
| 19> O -3.0243912865 1.7440769686 -1.2832748199
| 20> C -2.5081824025 3.0754692745 -1.0455598637
| 21> C -2.2394783397 3.3439744503 0.4204992844
| 22> O -2.0101360422 0.1434827571 0.4674686605
| 23> C -2.9280384399 -0.5967115389 1.2949739212
| 24> C -2.1367760492 -1.4511274423 2.2650672783
| 25> H 5.1666164598 0.5510209281 0.4844362337
| 26> H 4.9469178501 2.3049534235 0.6079368519
| 27> H 4.0105652209 1.2232476027 1.6501218524
| 28> H 3.7395303882 1.3879395239 -1.3983408239
| 29> H 2.6039724007 2.0801975592 -0.2031835353
| 30> H 2.5605126417 -3.3277585884 1.4402037538
| 31> H 3.5370505839 -2.2750861669 0.3836167981
| 32> H 3.9640827608 -2.6364497526 3.3938409482
| 33> H 4.9504647865 -3.3903912635 2.1298972136
| 34> H 4.9530751841 -1.6301687301 2.3332620517
| 35> H -0.4412910755 -1.4083475765 -2.5055339819
| 36> H 1.2538869349 -0.8077558439 -2.4232401868
| 37> H -1.599237046 3.2037422572 -1.6395291601
| 38> H -3.2977713568 3.7209055766 -1.4342950016
| 39> H -1.9460849241 4.3820340103 0.5413037517
| 40> H -3.134366711 3.1564452656 1.0085913912
| 41> H -1.4356032817 2.7102510142 0.7917646381
| 42> H -3.5426456633 0.1347914965 1.8250563558
| 43> H -3.5668677175 -1.2120501496 0.6517454434
| 44> H -1.5832742235 -2.2190501871 1.7297129458
| 45> H -1.4330358462 -0.8288020811 2.8132695179
| 46> H -2.8204548838 -1.922690412 2.9631671562
| 47> *
| 48>
| 49>                          ****END OF INPUT****

CARTESIAN COORDINATES (ANGSTROEM)
---------------------------------
  C      4.444018    1.344461    0.657562
  C      3.346091    1.296866   -0.385176
  O      2.678813    0.019837   -0.377191
  P      1.622399   -0.367849    0.758741
  S      0.815568    1.123553    1.723042
  O      2.354625   -1.312928    1.799561
  C      3.186150   -2.433278    1.406297
  C      4.342202   -2.527516    2.381468
  S      0.470358   -1.767224   -0.356667
  C      0.293091   -0.855702   -1.917453
  S     -0.267005    0.851604   -1.705739
  P     -2.225705    0.387962   -1.095974
  S     -3.138949   -1.072772   -2.015929
  O     -3.024391    1.744077   -1.283275
  C     -2.508182    3.075469   -1.045560
  C     -2.239478    3.343974    0.420499
  O     -2.010136    0.143483    0.467469
  C     -2.928038   -0.596712    1.294974
  C     -2.136776   -1.451127    2.265067
  H      5.166616    0.551021    0.484436
  H      4.946918    2.304953    0.607937
  H      4.010565    1.223248    1.650122
  H      3.739530    1.387940   -1.398341
  H      2.603972    2.080198   -0.203184
  H      2.560513   -3.327759    1.440204
  H      3.537051   -2.275086    0.383617
  H      3.964083   -2.636450    3.393841
  H      4.950465   -3.390391    2.129897
  H      4.953075   -1.630169    2.333262
  H     -0.441291   -1.408348   -2.505534
  H      1.253887   -0.807756   -2.423240
  H     -1.599237    3.203742   -1.639529
  H     -3.297771    3.720906   -1.434295
  H     -1.946085    4.382034    0.541304
  H     -3.134367    3.156445    1.008591
  H     -1.435603    2.710251    0.791765
  H     -3.542646    0.134791    1.825056
  H     -3.566868   -1.212050    0.651745
  H     -1.583274   -2.219050    1.729713
  H     -1.433036   -0.828802    2.813270
  H     -2.820455   -1.922690    2.963167

 Total Charge           Charge          ....    0
 Multiplicity           Mult            ....    1
 Number of Electrons    NEL             ....  202
 Basis Dimension        Dim             ....  334

ORBITAL ENERGIES
----------------

  NO   OCC          E(Eh)            E(eV)
   0   2.0000     -88.044686     -2395.8177
   1   2.0000     -88.041951     -2395.7433
   2   2.0000     -87.985008     -2394.1938
   3   2.0000     -87.977729     -2393.9957
   4   2.0000     -76.427685     -2079.7030
   5   2.0000     -76.420340     -2079.5032
   6   2.0000     -18.799674      -511.5651
   7   2.0000     -18.794451      -511.4230
   8   2.0000     -18.787981      -511.2469
   9   2.0000     -18.778268      -510.9826
  10   2.0000      -9.959257      -271.0052
  11   2.0000      -9.959185      -271.0032
  12   2.0000      -9.956762      -270.9373
  13   2.0000      -9.955977      -270.9159
  14   2.0000      -9.939061      -270.4556
  15   2.0000      -9.893854      -269.2255
  16   2.0000      -9.890731      -269.1405
  17   2.0000      -9.881346      -268.8851
  18   2.0000      -9.869301      -268.5573
  19   2.0000      -7.689867      -209.2519
  20   2.0000      -7.686877      -209.1705
  21   2.0000      -7.630030      -207.6237
  22   2.0000      -7.623134      -207.4360
  23   2.0000      -6.425078      -174.8353
  24   2.0000      -6.418150      -174.6467
  25   2.0000      -5.717713      -155.5869
  26   2.0000      -5.715002      -155.5131
  27   2.0000      -5.714416      -155.4972
  28   2.0000      -5.711316      -155.4128
  29   2.0000      -5.706749      -155.2885
  30   2.0000      -5.703660      -155.2045
  31   2.0000      -5.659093      -153.9917
  32   2.0000      -5.652146      -153.8027
  33   2.0000      -5.650465      -153.7570
  34   2.0000      -5.650145      -153.7483
  35   2.0000      -5.644041      -153.5822
  36   2.0000      -5.642828      -153.5492
  37   2.0000      -4.648254      -126.4854
  38   2.0000      -4.646568      -126.4395
  39   2.0000      -4.645296      -126.4049
  40   2.0000      -4.641074      -126.2900
  41   2.0000      -4.639691      -126.2524
  42   2.0000      -4.638493      -126.2198
  43   2.0000      -0.989237       -26.9185
  44   2.0000      -0.975763       -26.5519
  45   2.0000      -0.949812       -25.8457
  46   2.0000      -0.936177       -25.4747
  47   2.0000      -0.766358       -20.8537
  48   2.0000      -0.723737       -19.6939
  49   2.0000      -0.708979       -19.2923
  50   2.0000      -0.696477       -18.9521
  51   2.0000      -0.684346       -18.6220
  52   2.0000      -0.669284       -18.2121
  53   2.0000      -0.651011       -17.7149
  54   2.0000      -0.636226       -17.3126
  55   2.0000      -0.594759       -16.1842
  56   2.0000      -0.585772       -15.9397
  57   2.0000      -0.576261       -15.6808
  58   2.0000      -0.574073       -15.6213
  59   2.0000      -0.555778       -15.1235
  60   2.0000      -0.508466       -13.8361
  61   2.0000      -0.495077       -13.4717
  62   2.0000      -0.486150       -13.2288
  63   2.0000      -0.474334       -12.9073
  64   2.0000      -0.459253       -12.4969
  65   2.0000      -0.446959       -12.1624
  66   2.0000      -0.442577       -12.0431
  67   2.0000      -0.433579       -11.7983
  68   2.0000      -0.424031       -11.5385
  69   2.0000      -0.407074       -11.0770
  70   2.0000      -0.402855       -10.9622
  71   2.0000      -0.398878       -10.8540
  72   2.0000      -0.395823       -10.7709
  73   2.0000      -0.391239       -10.6462
  74   2.0000      -0.378422       -10.2974
  75   2.0000      -0.368765       -10.0346
  76   2.0000      -0.367000        -9.9866
  77   2.0000      -0.361271        -9.8307
  78   2.0000      -0.352172        -9.5831
  79   2.0000      -0.349609        -9.5133
  80   2.0000      -0.347992        -9.4694
  81   2.0000      -0.346395        -9.4259
  82   2.0000      -0.339133        -9.2283
  83   2.0000      -0.334515        -9.1026
  84   2.0000      -0.331198        -9.0124
  85   2.0000      -0.322820        -8.7844
  86   2.0000      -0.313312        -8.5257
  87   2.0000      -0.304604        -8.2887
  88   2.0000      -0.301914        -8.2155
  89   2.0000      -0.286655        -7.8003
  90   2.0000      -0.276081        -7.5126
  91   2.0000      -0.270896        -7.3714
  92   2.0000      -0.270519        -7.3612
  93   2.0000      -0.267099        -7.2681
  94   2.0000      -0.263371        -7.1667
  95   2.0000      -0.232098        -6.3157
  96   2.0000      -0.220368        -5.9965
  97   2.0000      -0.204020        -5.5517
  98   2.0000      -0.198460        -5.4004
  99   2.0000      -0.195013        -5.3066
 100   2.0000      -0.190962        -5.1963
 101   0.0000      -0.051634        -1.4050
 102   0.0000      -0.021311        -0.5799
 103   0.0000      -0.012915        -0.3514
 104   0.0000       0.004229         0.1151
 105   0.0000       0.017171         0.4673

MULLIKEN ATOMIC CHARGES
-----------------------
   0 C :   -0.315715
   1 C :   -0.010680
   2 O :   -0.393563
   3 P :    0.620013
   4 S :   -0.287223
   5 O :   -0.368504
   6 C :   -0.023886
   7 C :   -0.284490
   8 S :   -0.094230
   9 C :   -0.331109
  10 S :   -0.115820
  11 P :    0.632951
  12 S :   -0.325851
  13 O :   -0.369923
  14 C :   -0.023455
  15 C :   -0.329235
  16 O :   -0.367534
  17 C :   -0.008609
  18 C :   -0.294104
  19 H :    0.115233
  20 H :    0.115008
  21 H :    0.132341
  22 H :    0.102618
  23 H :    0.115081
  24 H :    0.113212
  25 H :    0.106976
  26 H :    0.124237
  27 H :    0.112258
  28 H :    0.118383
  29 H :    0.192655
  30 H :    0.184015
  31 H :    0.117368
  32 H :    0.112861
  33 H :    0.109885
  34 H :    0.115802
  35 H :    0.159062
  36 H :    0.095357
  37 H :    0.105747
  38 H :    0.118974
  39 H :    0.123294
  40 H :    0.100600
Sum of atomic charges:    0.0000000

LOEWDIN ATOMIC CHARGES
----------------------
   0 C :   -0.365482
   1 C :   -0.122904
   2 O :   -0.254441
   3 P :    0.567778
   4 S :   -0.285747
   5 O :   -0.245364
   6 C :   -0.121094
   7 C :   -0.351288
   8 S :    0.086789
   9 C :   -0.473632
  10 S :    0.085514
  11 P :    0.571235
  12 S :   -0.318578
  13 O :   -0.244755
  14 C :   -0.114356
  15 C :   -0.370457
  16 O :   -0.244899
  17 C :   -0.117024
  18 C :   -0.360314
  19 H :    0.121997
  20 H :    0.132503
  21 H :    0.126309
  22 H :    0.116464
  23 H :    0.110134
  24 H :    0.115980
  25 H :    0.108157
  26 H :    0.131310
  27 H :    0.130832
  28 H :    0.126196
  29 H :    0.131680
  30 H :    0.132848
  31 H :    0.106864
  32 H :    0.122961
  33 H :    0.130465
  34 H :    0.126242
  35 H :    0.125815
  36 H :    0.109447
  37 H :    0.104981
  38 H :    0.118714
  39 H :    0.124153
  40 H :    0.124966

  Mayer bond orders larger than 0.100000
B(  0-C ,  1-C ) :   1.1639 B(  0-C , 19-H ) :   0.9435 B(  0-C , 20-H ) :   0.9387
B(  0-C , 21-H ) :   0.9335 B(  1-C ,  2-O ) :   0.9019 B(  1-C , 22-H ) :   0.9332
B(  1-C , 23-H ) :   0.9098 B(  2-O ,  3-P ) :   1.0538 B(  3-P ,  4-S ) :   1.6430
B(  3-P ,  5-O ) :   1.1247 B(  3-P ,  8-S ) :   0.9593 B(  4-S ,  8-S ) :   0.1060
B(  5-O ,  6-C ) :   0.8944 B(  6-C ,  7-C ) :   1.1628 B(  6-C , 24-H ) :   0.9318
B(  6-C , 25-H ) :   0.9161 B(  7-C , 26-H ) :   0.9482 B(  7-C , 27-H ) :   0.9407
B(  7-C , 28-H ) :   0.9475 B(  8-S ,  9-C ) :   0.9968 B(  9-C , 10-S ) :   1.0207
B(  9-C , 29-H ) :   0.8758 B(  9-C , 30-H ) :   0.9044 B( 10-S , 11-P ) :   0.9505
B( 11-P , 12-S ) :   1.6360 B( 11-P , 13-O ) :   1.1285 B( 11-P , 16-O ) :   1.1037
B( 13-O , 14-C ) :   0.9087 B( 14-C , 15-C ) :   1.1625 B( 14-C , 31-H ) :   0.9182
B( 14-C , 32-H ) :   0.9352 B( 15-C , 33-H ) :   0.9361 B( 15-C , 34-H ) :   0.9446
B( 15-C , 35-H ) :   0.9241 B( 16-O , 17-C ) :   0.9034 B( 17-C , 18-C ) :   1.1660
B( 17-C , 36-H ) :   0.9326 B( 17-C , 37-H ) :   0.9033 B( 18-C , 38-H ) :   0.9453
B( 18-C , 39-H ) :   0.9411 B( 18-C , 40-H ) :   0.9397

Dispersion correction           -0.067395628
FINAL SINGLE POINT ENERGY     -2929.516566994806

DIPOLE MOMENT
-------------

Method             : SCF
Type of density    : Electron Density
Multiplicity       :   1
Irrep              :   0
Energy             : -2929.6343221195879778 Eh
Relativity type    :
Basis              : AO
                                X                 Y                 Z
Electronic contribution:    -14.689193249      -2.683216890     -14.338607413
Nuclear contribution   :     16.442417873       3.015182865      14.585972714
                        -----------------------------------------
Total Dipole Moment    :      1.753224624       0.331965975       0.247365301
                        -----------------------------------------
Magnitude (a.u.)       :      1.801440419
Magnitude (Debye)      :      4.578897654

Rotational constants in cm-1:             0.012447             0.005420             0.005009
Rotational constants in MHz :           373.150909           162.494695           150.172692

                             ****ORCA TERMINATED NORMALLY****
TOTAL RUN TIME: 0 days 0 hours 0 minutes 21 seconds 477 msec
