                         Program Version 6.0.1  -  RELEASE   -
|  1> ! pbe def2-sv(p) def2/J RI DEFGRID1 loosescf d4 GCP(DFT/SV(P)) printgap
|  2> %output
|  3>     printlevel normal
|  4> end
|  5> * xyz 0 1
|  6> C 2.6060726476 -2.7466440858 0.5936623116
|  7> C 3.3248649894 -1.7288876967 -0.2766732356
|  8> O 2.3562204553 -0.8579517171 -0.8931064489
|  9> C 2.1385365082 -0.9398221615 -2.1935386499
| 10> O 2.7576226023 -1.6549537572 -2.9487843439
| 11> C 1.0271013711 -0.0139960346 -2.645274657
| 12> C 0.1753536197 0.499154202 -1.4901767105
| 13> H -0.5888134432 1.1862454596 -1.8709059168
| 14> C 1.030632259 1.2849016509 -0.5113789632
| 15> O 1.8305831146 2.1109063639 -0.8902925815
| 16> O 0.7886837517 0.999694974 0.7489046463
| 17> C 1.5393515566 1.7201102335 1.7494087857
| 18> C 1.6225680139 0.8816823044 3.0086714487
| 19> S -0.6929679794 -0.8839124494 -0.6820095241
| 20> P -1.9281229712 0.2473245822 0.6303504653
| 21> S -2.1526807731 2.1528874194 0.2310146148
| 22> O -3.2990538911 -0.5835592689 0.5934199802
| 23> C -4.1298449791 -0.5935973251 -0.5711411178
| 24> O -1.4731339555 -0.051440487 2.1117652441
| 25> C -1.3749113255 -1.4056922123 2.5996997076
| 26> H 1.9887070906 -2.2366021923 1.3282960381
| 27> H 1.9687553016 -3.3789952085 -0.0192721944
| 28> H 3.3381395524 -3.3633785081 1.1041496795
| 29> H 3.9069841318 -2.2132727639 -1.0653000289
| 30> H 3.9708331878 -1.079368412 0.3177539073
| 31> H 0.4180925745 -0.5444491857 -3.3776088043
| 32> H 1.4963441013 0.8403365468 -3.1410011473
| 33> H 2.5268137491 1.9372980938 1.3310127205
| 34> H 1.0175682856 2.6651162214 1.9297109846
| 35> H 0.626652246 0.7189383605 3.4085122442
| 36> H 2.0864328961 -0.0766219544 2.7935521582
| 37> H 2.2202355274 1.4110348783 3.7434130318
| 38> H -4.3081621276 0.4266432577 -0.9148438692
| 39> H -5.0630568266 -1.0573134078 -0.2620533428
| 40> H -3.6547030264 -1.1759740043 -1.3605389846
| 41> H -0.8953234415 -1.330660587 3.5721031231
| 42> H -0.7729893042 -2.0045685288 1.9160086274
| 43> H -2.3695353997 -1.8367264407 2.6925193489
| 44> *
| 45>
| 46>                          ****END OF INPUT****

CARTESIAN COORDINATES (ANGSTROEM)
---------------------------------
  C      2.606073   -2.746644    0.593662
  C      3.324865   -1.728888   -0.276673
  O      2.356220   -0.857952   -0.893106
  C      2.138537   -0.939822   -2.193539
  O      2.757623   -1.654954   -2.948784
  C      1.027101   -0.013996   -2.645275
  C      0.175354    0.499154   -1.490177
  H     -0.588813    1.186245   -1.870906
  C      1.030632    1.284902   -0.511379
  O      1.830583    2.110906   -0.890293
  O      0.788684    0.999695    0.748905
  C      1.539352    1.720110    1.749409
  C      1.622568    0.881682    3.008671
  S     -0.692968   -0.883912   -0.682010
  P     -1.928123    0.247325    0.630350
  S     -2.152681    2.152887    0.231015
  O     -3.299054   -0.583559    0.593420
  C     -4.129845   -0.593597   -0.571141
  O     -1.473134   -0.051440    2.111765
  C     -1.374911   -1.405692    2.599700
  H      1.988707   -2.236602    1.328296
  H      1.968755   -3.378995   -0.019272
  H      3.338140   -3.363379    1.104150
  H      3.906984   -2.213273   -1.065300
  H      3.970833   -1.079368    0.317754
  H      0.418093   -0.544449   -3.377609
  H      1.496344    0.840337   -3.141001
  H      2.526814    1.937298    1.331013
  H      1.017568    2.665116    1.929711
  H      0.626652    0.718938    3.408512
  H      2.086433   -0.076622    2.793552
  H      2.220236    1.411035    3.743413
  H     -4.308162    0.426643   -0.914844
  H     -5.063057   -1.057313   -0.262053
  H     -3.654703   -1.175974   -1.360539
  H     -0.895323   -1.330661    3.572103
  H     -0.772989   -2.004569    1.916009
  H     -2.369535   -1.836726    2.692519

 Total Charge           Charge          ....    0
 Multiplicity           Mult            ....    1
 Number of Electrons    NEL             ....  174
 Basis Dimension        Dim             ....  316

ORBITAL ENERGIES
----------------

  NO   OCC          E(Eh)            E(eV)
   0   2.0000     -88.043730     -2395.7917
   1   2.0000     -87.987552     -2394.2630
   2   2.0000     -76.430325     -2079.7749
   3   2.0000     -18.812110      -511.9035
   4   2.0000     -18.806032      -511.7381
   5   2.0000     -18.801154      -511.6054
   6   2.0000     -18.795293      -511.4459
   7   2.0000     -18.737485      -509.8729
   8   2.0000     -18.736425      -509.8441
   9   2.0000     -10.016501      -272.5629
  10   2.0000     -10.014216      -272.5007
  11   2.0000      -9.957375      -270.9540
  12   2.0000      -9.954006      -270.8623
  13   2.0000      -9.948082      -270.7011
  14   2.0000      -9.947492      -270.6850
  15   2.0000      -9.946955      -270.6704
  16   2.0000      -9.918011      -269.8828
  17   2.0000      -9.895237      -269.2631
  18   2.0000      -9.890912      -269.1454
  19   2.0000      -7.688255      -209.2080
  20   2.0000      -7.632684      -207.6959
  21   2.0000      -6.427311      -174.8960
  22   2.0000      -5.715969      -155.5394
  23   2.0000      -5.712925      -155.4566
  24   2.0000      -5.705326      -155.2498
  25   2.0000      -5.661882      -154.0676
  26   2.0000      -5.653163      -153.8304
  27   2.0000      -5.652686      -153.8174
  28   2.0000      -4.650057      -126.5345
  29   2.0000      -4.649211      -126.5115
  30   2.0000      -4.647592      -126.4674
  31   2.0000      -1.019016       -27.7288
  32   2.0000      -1.011930       -27.5360
  33   2.0000      -0.993220       -27.0269
  34   2.0000      -0.947661       -25.7872
  35   2.0000      -0.918916       -25.0050
  36   2.0000      -0.916654       -24.9434
  37   2.0000      -0.770860       -20.9762
  38   2.0000      -0.719091       -19.5675
  39   2.0000      -0.705301       -19.1922
  40   2.0000      -0.699082       -19.0230
  41   2.0000      -0.663744       -18.0614
  42   2.0000      -0.641947       -17.4683
  43   2.0000      -0.625698       -17.0261
  44   2.0000      -0.616029       -16.7630
  45   2.0000      -0.600560       -16.3421
  46   2.0000      -0.567379       -15.4392
  47   2.0000      -0.520832       -14.1726
  48   2.0000      -0.512360       -13.9420
  49   2.0000      -0.508468       -13.8361
  50   2.0000      -0.482034       -13.1168
  51   2.0000      -0.477923       -13.0049
  52   2.0000      -0.470311       -12.7978
  53   2.0000      -0.449532       -12.2324
  54   2.0000      -0.440571       -11.9886
  55   2.0000      -0.438560       -11.9338
  56   2.0000      -0.429398       -11.6845
  57   2.0000      -0.423094       -11.5130
  58   2.0000      -0.419866       -11.4251
  59   2.0000      -0.409543       -11.1442
  60   2.0000      -0.407197       -11.0804
  61   2.0000      -0.401687       -10.9304
  62   2.0000      -0.390370       -10.6225
  63   2.0000      -0.386306       -10.5119
  64   2.0000      -0.378644       -10.3034
  65   2.0000      -0.371275       -10.1029
  66   2.0000      -0.364353        -9.9146
  67   2.0000      -0.359691        -9.7877
  68   2.0000      -0.349303        -9.5050
  69   2.0000      -0.343562        -9.3488
  70   2.0000      -0.338343        -9.2068
  71   2.0000      -0.336425        -9.1546
  72   2.0000      -0.323134        -8.7929
  73   2.0000      -0.320038        -8.7087
  74   2.0000      -0.316186        -8.6039
  75   2.0000      -0.304205        -8.2779
  76   2.0000      -0.298650        -8.1267
  77   2.0000      -0.297628        -8.0989
  78   2.0000      -0.275212        -7.4889
  79   2.0000      -0.267642        -7.2829
  80   2.0000      -0.264611        -7.2004
  81   2.0000      -0.258226        -7.0267
  82   2.0000      -0.241743        -6.5782
  83   2.0000      -0.227310        -6.1854
  84   2.0000      -0.211864        -5.7651
  85   2.0000      -0.206413        -5.6168
  86   2.0000      -0.202664        -5.5148
  87   0.0000      -0.045515        -1.2385
  88   0.0000      -0.024430        -0.6648
  89   0.0000      -0.019442        -0.5290
  90   0.0000      -0.000492        -0.0134
  91   0.0000       0.010934         0.2975

MULLIKEN ATOMIC CHARGES
-----------------------
   0 C :   -0.315891
   1 C :   -0.020450
   2 O :   -0.239376
   3 C :    0.113275
   4 O :   -0.194526
   5 C :   -0.110557
   6 C :   -0.299200
   7 H :    0.154125
   8 C :    0.235126
   9 O :   -0.203825
  10 O :   -0.232967
  11 C :   -0.017845
  12 C :   -0.311322
  13 S :   -0.106218
  14 P :    0.620898
  15 S :   -0.314487
  16 O :   -0.391237
  17 C :   -0.100033
  18 O :   -0.361568
  19 C :   -0.121293
  20 H :    0.136930
  21 H :    0.118490
  22 H :    0.113318
  23 H :    0.119957
  24 H :    0.108145
  25 H :    0.131311
  26 H :    0.151974
  27 H :    0.111663
  28 H :    0.112971
  29 H :    0.135072
  30 H :    0.116881
  31 H :    0.111136
  32 H :    0.118846
  33 H :    0.125780
  34 H :    0.113136
  35 H :    0.131384
  36 H :    0.129393
  37 H :    0.130986
Sum of atomic charges:    0.0000000

LOEWDIN ATOMIC CHARGES
----------------------
   0 C :   -0.355069
   1 C :   -0.108898
   2 O :   -0.050128
   3 C :    0.033073
   4 O :   -0.161019
   5 C :   -0.244660
   6 C :   -0.273224
   7 H :    0.144780
   8 C :    0.012480
   9 O :   -0.163659
  10 O :   -0.057496
  11 C :   -0.103777
  12 C :   -0.355655
  13 S :    0.087408
  14 P :    0.578940
  15 S :   -0.308278
  16 O :   -0.261996
  17 C :   -0.217394
  18 O :   -0.236292
  19 C :   -0.211857
  20 H :    0.122765
  21 H :    0.128661
  22 H :    0.130444
  23 H :    0.124174
  24 H :    0.118906
  25 H :    0.146540
  26 H :    0.163664
  27 H :    0.118753
  28 H :    0.121783
  29 H :    0.129254
  30 H :    0.121353
  31 H :    0.131353
  32 H :    0.112072
  33 H :    0.122758
  34 H :    0.107842
  35 H :    0.123082
  36 H :    0.109863
  37 H :    0.119454

  Mayer bond orders larger than 0.100000
B(  0-C ,  1-C ) :   1.1751 B(  0-C , 20-H ) :   0.9356 B(  0-C , 21-H ) :   0.9466
B(  0-C , 22-H ) :   0.9421 B(  1-C ,  2-O ) :   0.9061 B(  1-C , 23-H ) :   0.9060
B(  1-C , 24-H ) :   0.9336 B(  2-O ,  3-C ) :   1.2085 B(  3-C ,  4-O ) :   2.0757
B(  3-C ,  5-C ) :   1.0070 B(  5-C ,  6-C ) :   1.0636 B(  5-C , 25-H ) :   0.9050
B(  5-C , 26-H ) :   0.8714 B(  6-C ,  7-H ) :   0.8461 B(  6-C ,  8-C ) :   0.8692
B(  6-C , 13-S ) :   1.0150 B(  8-C ,  9-O ) :   2.0602 B(  8-C , 10-O ) :   1.2401
B( 10-O , 11-C ) :   0.8955 B( 11-C , 12-C ) :   1.1629 B( 11-C , 27-H ) :   0.9190
B( 11-C , 28-H ) :   0.9300 B( 12-C , 29-H ) :   0.9354 B( 12-C , 30-H ) :   0.9455
B( 12-C , 31-H ) :   0.9400 B( 13-S , 14-P ) :   0.9581 B( 13-S , 15-S ) :   0.1142
B( 14-P , 15-S ) :   1.6365 B( 14-P , 16-O ) :   1.0642 B( 14-P , 18-O ) :   1.1171
B( 16-O , 17-C ) :   0.9332 B( 17-C , 32-H ) :   0.9361 B( 17-C , 33-H ) :   0.9585
B( 17-C , 34-H ) :   0.9451 B( 18-O , 19-C ) :   0.9170 B( 19-C , 35-H ) :   0.9540
B( 19-C , 36-H ) :   0.9317 B( 19-C , 37-H ) :   0.9476

Dispersion correction           -0.054842165
FINAL SINGLE POINT ENERGY     -1979.021040887815

DIPOLE MOMENT
-------------

Method             : SCF
Type of density    : Electron Density
Multiplicity       :   1
Irrep              :   0
Energy             : -1979.1498684755301838 Eh
Relativity type    :
Basis              : AO
                                X                 Y                 Z
Electronic contribution:     -9.519582114       9.317391165      -9.614707856
Nuclear contribution   :      9.272745968     -10.683532370      10.806708559
                        -----------------------------------------
Total Dipole Moment    :     -0.246836146      -1.366141205       1.192000703
                        -----------------------------------------
Magnitude (a.u.)       :      1.829791122
Magnitude (Debye)      :      4.650959415

Rotational constants in cm-1:             0.013645             0.007686             0.007226
Rotational constants in MHz :           409.067851           230.430091           216.628005

                             ****ORCA TERMINATED NORMALLY****
TOTAL RUN TIME: 0 days 0 hours 0 minutes 40 seconds 486 msec
