                         Program Version 6.0.0  -   RELEASE  -
|  1> ! pbe def2-sv(p) def2/J RI DEFGRID1 loosescf d4 GCP(DFT/SV(P)) printgap
|  2> %output
|  3>     printlevel normal
|  4> end
|  5> * xyz 0 1
|  6> C 5.3886793095 -1.0215886686 -0.8098128742
|  7> C 4.0680496514 -1.7523187769 -0.9386736278
|  8> O 3.0602229155 -0.9037485625 -1.5426077072
|  9> P 2.0312037964 -0.0310919717 -0.7268909893
| 10> S 0.87466265 0.938287879 -1.9703152855
| 11> O 2.9791110271 0.8194058799 0.216481001
| 12> C 2.5488967796 1.9178962718 1.0405132318
| 13> C 3.7825159647 2.7034282533 1.4349091274
| 14> S 1.0872942128 -1.4153030133 0.5909683299
| 15> C -0.3269798237 -1.8418570491 -0.4766747223
| 16> S -1.9195114955 -1.7599840332 0.3725270614
| 17> P -2.1700996211 0.3561204579 0.4747710024
| 18> S -0.7788339372 1.399164176 1.3717288082
| 19> O -3.6427407235 0.4763953375 1.0581755687
| 20> C -4.1425768359 -0.2325199373 2.2087650162
| 21> C -3.2634070759 -0.0650004101 3.4296985194
| 22> O -2.3527459504 0.9083045462 -0.9872309756
| 23> C -3.390991016 0.5224495313 -1.9210252603
| 24> C -2.8888305701 -0.5299961779 -2.8904798099
| 25> H 5.7019019101 -0.6465701745 -1.7803137972
| 26> H 5.2921275781 -0.1834144301 -0.1253362309
| 27> H 6.1384021623 -1.7094199109 -0.4313840496
| 28> H 3.7052300564 -2.0935096776 0.0352381871
| 29> H 4.1480864864 -2.5993281143 -1.6222941825
| 30> H 1.8412528574 2.5309442348 0.4736141522
| 31> H 2.0281530459 1.5170667221 1.9140907562
| 32> H 4.4662066631 2.0673867716 1.9896552615
| 33> H 4.2851250663 3.0797757603 0.5481293218
| 34> H 3.4823074604 3.5382746253 2.0592090281
| 35> H -0.218538052 -2.8750231926 -0.7960151889
| 36> H -0.3268861807 -1.1537789613 -1.3265981758
| 37> H -5.13145564 0.2020269906 2.3657367802
| 38> H -4.236456255 -1.2886952167 1.941619454
| 39> H -3.7274159733 -0.557004431 4.2783350334
| 40> H -2.2849678207 -0.5100339398 3.2521806691
| 41> H -3.1231639428 0.9897522132 3.6548048013
| 42> H -4.2624622324 0.175884832 -1.3626649302
| 43> H -3.6297976894 1.4514076414 -2.4412160927
| 44> H -1.9398972673 -0.2110475989 -3.3171773392
| 45> H -2.7543807532 -1.4870144326 -2.3921265542
| 46> H -3.6140938006 -0.6483567236 -3.6891901811
| 47> *
| 48>
| 49>                          ****END OF INPUT****

CARTESIAN COORDINATES (ANGSTROEM)
---------------------------------
  C      5.388679   -1.021589   -0.809813
  C      4.068050   -1.752319   -0.938674
  O      3.060223   -0.903749   -1.542608
  P      2.031204   -0.031092   -0.726891
  S      0.874663    0.938288   -1.970315
  O      2.979111    0.819406    0.216481
  C      2.548897    1.917896    1.040513
  C      3.782516    2.703428    1.434909
  S      1.087294   -1.415303    0.590968
  C     -0.326980   -1.841857   -0.476675
  S     -1.919511   -1.759984    0.372527
  P     -2.170100    0.356120    0.474771
  S     -0.778834    1.399164    1.371729
  O     -3.642741    0.476395    1.058176
  C     -4.142577   -0.232520    2.208765
  C     -3.263407   -0.065000    3.429699
  O     -2.352746    0.908305   -0.987231
  C     -3.390991    0.522450   -1.921025
  C     -2.888831   -0.529996   -2.890480
  H      5.701902   -0.646570   -1.780314
  H      5.292128   -0.183414   -0.125336
  H      6.138402   -1.709420   -0.431384
  H      3.705230   -2.093510    0.035238
  H      4.148086   -2.599328   -1.622294
  H      1.841253    2.530944    0.473614
  H      2.028153    1.517067    1.914091
  H      4.466207    2.067387    1.989655
  H      4.285125    3.079776    0.548129
  H      3.482307    3.538275    2.059209
  H     -0.218538   -2.875023   -0.796015
  H     -0.326886   -1.153779   -1.326598
  H     -5.131456    0.202027    2.365737
  H     -4.236456   -1.288695    1.941619
  H     -3.727416   -0.557004    4.278335
  H     -2.284968   -0.510034    3.252181
  H     -3.123164    0.989752    3.654805
  H     -4.262462    0.175885   -1.362665
  H     -3.629798    1.451408   -2.441216
  H     -1.939897   -0.211048   -3.317177
  H     -2.754381   -1.487014   -2.392127
  H     -3.614094   -0.648357   -3.689190

 Total Charge           Charge          ....    0
 Multiplicity           Mult            ....    1
 Number of Electrons    NEL             ....  202
 Basis Dimension        Dim             ....  334

ORBITAL ENERGIES
----------------

  NO   OCC          E(Eh)            E(eV)
   0   2.0000     -88.044884     -2395.8231
   1   2.0000     -88.035019     -2395.5547
   2   2.0000     -87.976781     -2393.9699
   3   2.0000     -87.972383     -2393.8502
   4   2.0000     -76.421987     -2079.5480
   5   2.0000     -76.418857     -2079.4628
   6   2.0000     -18.790838      -511.3247
   7   2.0000     -18.790554      -511.3170
   8   2.0000     -18.784166      -511.1431
   9   2.0000     -18.782545      -511.0990
  10   2.0000      -9.958961      -270.9971
  11   2.0000      -9.955224      -270.8954
  12   2.0000      -9.951392      -270.7911
  13   2.0000      -9.951316      -270.7891
  14   2.0000      -9.944716      -270.6095
  15   2.0000      -9.883238      -268.9366
  16   2.0000      -9.882896      -268.9273
  17   2.0000      -9.881952      -268.9016
  18   2.0000      -9.881911      -268.9005
  19   2.0000      -7.689714      -209.2478
  20   2.0000      -7.680015      -208.9838
  21   2.0000      -7.622027      -207.4059
  22   2.0000      -7.617615      -207.2859
  23   2.0000      -6.418985      -174.6695
  24   2.0000      -6.416545      -174.6031
  25   2.0000      -5.717298      -155.5756
  26   2.0000      -5.714202      -155.4913
  27   2.0000      -5.707855      -155.3186
  28   2.0000      -5.707043      -155.2965
  29   2.0000      -5.704662      -155.2317
  30   2.0000      -5.696902      -155.0206
  31   2.0000      -5.651046      -153.7728
  32   2.0000      -5.646733      -153.6554
  33   2.0000      -5.642883      -153.5507
  34   2.0000      -5.641781      -153.5207
  35   2.0000      -5.638058      -153.4194
  36   2.0000      -5.637684      -153.4092
  37   2.0000      -4.641976      -126.3146
  38   2.0000      -4.641137      -126.2918
  39   2.0000      -4.639380      -126.2440
  40   2.0000      -4.638788      -126.2279
  41   2.0000      -4.638283      -126.2141
  42   2.0000      -4.636752      -126.1724
  43   2.0000      -0.984486       -26.7892
  44   2.0000      -0.982790       -26.7431
  45   2.0000      -0.940671       -25.5970
  46   2.0000      -0.939514       -25.5655
  47   2.0000      -0.759428       -20.6651
  48   2.0000      -0.718439       -19.5497
  49   2.0000      -0.710194       -19.3254
  50   2.0000      -0.688298       -18.7295
  51   2.0000      -0.687855       -18.7175
  52   2.0000      -0.673087       -18.3156
  53   2.0000      -0.645567       -17.5668
  54   2.0000      -0.630935       -17.1686
  55   2.0000      -0.587526       -15.9874
  56   2.0000      -0.582779       -15.8582
  57   2.0000      -0.573835       -15.6148
  58   2.0000      -0.568710       -15.4754
  59   2.0000      -0.561318       -15.2742
  60   2.0000      -0.506011       -13.7693
  61   2.0000      -0.497806       -13.5460
  62   2.0000      -0.477028       -12.9806
  63   2.0000      -0.468936       -12.7604
  64   2.0000      -0.452372       -12.3097
  65   2.0000      -0.442807       -12.0494
  66   2.0000      -0.439006       -11.9460
  67   2.0000      -0.434772       -11.8307
  68   2.0000      -0.430513       -11.7149
  69   2.0000      -0.419446       -11.4137
  70   2.0000      -0.410295       -11.1647
  71   2.0000      -0.397102       -10.8057
  72   2.0000      -0.386473       -10.5165
  73   2.0000      -0.383500       -10.4356
  74   2.0000      -0.381755       -10.3881
  75   2.0000      -0.360884        -9.8202
  76   2.0000      -0.353601        -9.6220
  77   2.0000      -0.351594        -9.5673
  78   2.0000      -0.351226        -9.5574
  79   2.0000      -0.350151        -9.5281
  80   2.0000      -0.344810        -9.3828
  81   2.0000      -0.342323        -9.3151
  82   2.0000      -0.340239        -9.2584
  83   2.0000      -0.338936        -9.2229
  84   2.0000      -0.334628        -9.1057
  85   2.0000      -0.316661        -8.6168
  86   2.0000      -0.309596        -8.4245
  87   2.0000      -0.296879        -8.0785
  88   2.0000      -0.291773        -7.9395
  89   2.0000      -0.288121        -7.8402
  90   2.0000      -0.285448        -7.7674
  91   2.0000      -0.273070        -7.4306
  92   2.0000      -0.267359        -7.2752
  93   2.0000      -0.259050        -7.0491
  94   2.0000      -0.254857        -6.9350
  95   2.0000      -0.240964        -6.5570
  96   2.0000      -0.219560        -5.9745
  97   2.0000      -0.199225        -5.4212
  98   2.0000      -0.197937        -5.3861
  99   2.0000      -0.180519        -4.9122
 100   2.0000      -0.178600        -4.8600
 101   0.0000      -0.038288        -1.0419
 102   0.0000      -0.027638        -0.7521
 103   0.0000      -0.012988        -0.3534
 104   0.0000       0.003216         0.0875
 105   0.0000       0.025665         0.6984

MULLIKEN ATOMIC CHARGES
-----------------------
   0 C :   -0.293761
   1 C :   -0.010683
   2 O :   -0.357324
   3 P :    0.604441
   4 S :   -0.297533
   5 O :   -0.385209
   6 C :   -0.030254
   7 C :   -0.278046
   8 S :   -0.093083
   9 C :   -0.353986
  10 S :   -0.135082
  11 P :    0.610695
  12 S :   -0.313686
  13 O :   -0.381077
  14 C :   -0.014348
  15 C :   -0.309738
  16 O :   -0.344339
  17 C :   -0.004713
  18 C :   -0.312411
  19 H :    0.118690
  20 H :    0.125022
  21 H :    0.106969
  22 H :    0.098719
  23 H :    0.105439
  24 H :    0.123794
  25 H :    0.120707
  26 H :    0.113124
  27 H :    0.118453
  28 H :    0.114626
  29 H :    0.181322
  30 H :    0.204375
  31 H :    0.110213
  32 H :    0.113875
  33 H :    0.109856
  34 H :    0.128887
  35 H :    0.128153
  36 H :    0.100182
  37 H :    0.111224
  38 H :    0.139603
  39 H :    0.117548
  40 H :    0.109359
Sum of atomic charges:   -0.0000000

LOEWDIN ATOMIC CHARGES
----------------------
   0 C :   -0.361004
   1 C :   -0.116851
   2 O :   -0.241617
   3 P :    0.567950
   4 S :   -0.295673
   5 O :   -0.242440
   6 C :   -0.119813
   7 C :   -0.351687
   8 S :    0.064464
   9 C :   -0.480236
  10 S :    0.059478
  11 P :    0.566065
  12 S :   -0.303787
  13 O :   -0.246361
  14 C :   -0.114848
  15 C :   -0.370707
  16 O :   -0.225536
  17 C :   -0.110131
  18 C :   -0.367475
  19 H :    0.128401
  20 H :    0.125736
  21 H :    0.128047
  22 H :    0.101041
  23 H :    0.119174
  24 H :    0.114101
  25 H :    0.110990
  26 H :    0.123630
  27 H :    0.127544
  28 H :    0.132300
  29 H :    0.135809
  30 H :    0.121959
  31 H :    0.121770
  32 H :    0.107215
  33 H :    0.129344
  34 H :    0.122439
  35 H :    0.130979
  36 H :    0.108142
  37 H :    0.123221
  38 H :    0.132267
  39 H :    0.116731
  40 H :    0.129371

  Mayer bond orders larger than 0.100000
B(  0-C ,  1-C ) :   1.1624 B(  0-C , 19-H ) :   0.9470 B(  0-C , 20-H ) :   0.9408
B(  0-C , 21-H ) :   0.9397 B(  1-C ,  2-O ) :   0.9022 B(  1-C , 22-H ) :   0.9101
B(  1-C , 23-H ) :   0.9372 B(  2-O ,  3-P ) :   1.1281 B(  3-P ,  4-S ) :   1.6461
B(  3-P ,  5-O ) :   1.0987 B(  3-P ,  8-S ) :   0.9494 B(  4-S ,  8-S ) :   0.1150
B(  4-S , 30-H ) :   0.1080 B(  5-O ,  6-C ) :   0.8972 B(  6-C ,  7-C ) :   1.1511
B(  6-C , 24-H ) :   0.9161 B(  6-C , 25-H ) :   0.9260 B(  7-C , 26-H ) :   0.9494
B(  7-C , 27-H ) :   0.9499 B(  7-C , 28-H ) :   0.9424 B(  8-S ,  9-C ) :   1.0012
B(  9-C , 10-S ) :   0.9956 B(  9-C , 29-H ) :   0.9118 B(  9-C , 30-H ) :   0.8419
B( 10-S , 11-P ) :   0.9307 B( 10-S , 12-S ) :   0.1152 B( 11-P , 12-S ) :   1.6694
B( 11-P , 13-O ) :   1.0821 B( 11-P , 16-O ) :   1.1418 B( 13-O , 14-C ) :   0.9137
B( 14-C , 15-C ) :   1.1672 B( 14-C , 31-H ) :   0.9334 B( 14-C , 32-H ) :   0.9259
B( 15-C , 33-H ) :   0.9341 B( 15-C , 34-H ) :   0.9313 B( 15-C , 35-H ) :   0.9418
B( 16-O , 17-C ) :   0.8998 B( 17-C , 18-C ) :   1.1709 B( 17-C , 36-H ) :   0.9194
B( 17-C , 37-H ) :   0.9348 B( 18-C , 38-H ) :   0.9346 B( 18-C , 39-H ) :   0.9336
B( 18-C , 40-H ) :   0.9382

Dispersion correction           -0.065843770
FINAL SINGLE POINT ENERGY     -2929.508673885605

DIPOLE MOMENT
-------------

Method             : SCF
Type of density    : Electron Density
Multiplicity       :   1
Irrep              :   0
Energy             : -2929.6274624668612887 Eh
Relativity type    :
Basis              : AO
                                X                 Y                 Z
Electronic contribution:     -5.932783204      -0.424781178      -2.807839116
Nuclear contribution   :      5.624315489      -0.632188744       3.224815032
                        -----------------------------------------
Total Dipole Moment    :     -0.308467715      -1.056969922       0.416975915
                        -----------------------------------------
Magnitude (a.u.)       :      1.177372779
Magnitude (Debye)      :      2.992643775

Rotational constants in cm-1:             0.012475             0.005038             0.004645
Rotational constants in MHz :           374.003553           151.025451           139.253192

                             ****ORCA TERMINATED NORMALLY****
TOTAL RUN TIME: 0 days 0 hours 0 minutes 21 seconds 150 msec
