                         Program Version 6.0.0  -   RELEASE  -
|  1> ! pbe def2-sv(p) def2/J RI DEFGRID1 loosescf d4 GCP(DFT/SV(P)) printgap
|  2> %output
|  3>     printlevel normal
|  4> end
|  5> * xyz 0 1
|  6> C 2.0422605567 2.735415065 0.0385937339
|  7> C 2.9786171911 2.083720276 1.0348627869
|  8> O 3.2329339546 0.7064089843 0.7087050342
|  9> P 2.0889288252 -0.3952182646 0.7265765423
| 10> S 0.8094560542 -0.2519255422 2.210951289
| 11> O 2.9073687548 -1.7540306391 0.6917611681
| 12> C 3.3460605606 -2.4223367606 1.8921678365
| 13> C 4.423634701 -1.6405497169 2.6134524553
| 14> S 1.3719538095 -0.4297817555 -1.2521038968
| 15> C 0.1157591685 -1.7293870054 -0.9993739544
| 16> S -1.4029029656 -1.4491225472 -1.9502406563
| 17> P -2.3187823093 0.069962209 -0.8004733683
| 18> S -4.1445631836 0.5543143717 -1.3118168207
| 19> O -1.294506729 1.2956585533 -0.7611631529
| 20> C -1.380107152 2.359249478 -1.725581299
| 21> C -0.9227290585 1.9140810984 -3.0999876302
| 22> O -2.1343677415 -0.5680751454 0.6393053762
| 23> C -2.9694945322 -0.1855237654 1.7509828704
| 24> C -2.7027827761 1.2357596378 2.1966166877
| 25> H 1.0610704177 2.2646983686 0.0993907957
| 26> H 1.9448845757 3.7913597494 0.2704677244
| 27> H 2.425443267 2.6185238604 -0.9722870761
| 28> H 2.5563648167 2.128501247 2.0441712919
| 29> H 3.9677513171 2.5434292016 1.0244496142
| 30> H 2.4779212901 -2.5724920143 2.5425567365
| 31> H 3.7138048641 -3.3850420534 1.5349647285
| 32> H 4.0106607984 -0.7107615872 3.0024051691
| 33> H 4.8033843515 -2.2308656799 3.441560619
| 34> H 5.236723302 -1.4058998603 1.9316544541
| 35> H -0.1307792348 -1.7780286328 0.0612638178
| 36> H 0.5111325553 -2.6745453131 -1.362715573
| 37> H -2.4178158154 2.7073297798 -1.7608439759
| 38> H -0.7388131889 3.143083729 -1.3208385402
| 39> H 0.0747182396 1.4837269331 -3.0476572684
| 40> H -1.6081465254 1.1636277592 -3.4934887465
| 41> H -0.9144681489 2.7685385782 -3.7687076179
| 42> H -4.0152213852 -0.3108786656 1.4529327524
| 43> H -2.7102886723 -0.9049444415 2.529088737
| 44> H -3.2910638833 1.4498285626 3.0831262668
| 45> H -1.6469357117 1.3592893605 2.4257788355
| 46> H -2.9826172493 1.930739896 1.4061415976
| 47> *
| 48>
| 49>                          ****END OF INPUT****

CARTESIAN COORDINATES (ANGSTROEM)
---------------------------------
  C      2.042261    2.735415    0.038594
  C      2.978617    2.083720    1.034863
  O      3.232934    0.706409    0.708705
  P      2.088929   -0.395218    0.726577
  S      0.809456   -0.251926    2.210951
  O      2.907369   -1.754031    0.691761
  C      3.346061   -2.422337    1.892168
  C      4.423635   -1.640550    2.613452
  S      1.371954   -0.429782   -1.252104
  C      0.115759   -1.729387   -0.999374
  S     -1.402903   -1.449123   -1.950241
  P     -2.318782    0.069962   -0.800473
  S     -4.144563    0.554314   -1.311817
  O     -1.294507    1.295659   -0.761163
  C     -1.380107    2.359249   -1.725581
  C     -0.922729    1.914081   -3.099988
  O     -2.134368   -0.568075    0.639305
  C     -2.969495   -0.185524    1.750983
  C     -2.702783    1.235760    2.196617
  H      1.061070    2.264698    0.099391
  H      1.944885    3.791360    0.270468
  H      2.425443    2.618524   -0.972287
  H      2.556365    2.128501    2.044171
  H      3.967751    2.543429    1.024450
  H      2.477921   -2.572492    2.542557
  H      3.713805   -3.385042    1.534965
  H      4.010661   -0.710762    3.002405
  H      4.803384   -2.230866    3.441561
  H      5.236723   -1.405900    1.931654
  H     -0.130779   -1.778029    0.061264
  H      0.511133   -2.674545   -1.362716
  H     -2.417816    2.707330   -1.760844
  H     -0.738813    3.143084   -1.320839
  H      0.074718    1.483727   -3.047657
  H     -1.608147    1.163628   -3.493489
  H     -0.914468    2.768539   -3.768708
  H     -4.015221   -0.310879    1.452933
  H     -2.710289   -0.904944    2.529089
  H     -3.291064    1.449829    3.083126
  H     -1.646936    1.359289    2.425779
  H     -2.982617    1.930740    1.406142

 Total Charge           Charge          ....    0
 Multiplicity           Mult            ....    1
 Number of Electrons    NEL             ....  202
 Basis Dimension        Dim             ....  334

ORBITAL ENERGIES
----------------

  NO   OCC          E(Eh)            E(eV)
   0   2.0000     -88.044001     -2395.7991
   1   2.0000     -88.043641     -2395.7893
   2   2.0000     -87.993904     -2394.4359
   3   2.0000     -87.986886     -2394.2449
   4   2.0000     -76.431309     -2079.8017
   5   2.0000     -76.424036     -2079.6038
   6   2.0000     -18.801003      -511.6013
   7   2.0000     -18.794084      -511.4130
   8   2.0000     -18.788638      -511.2648
   9   2.0000     -18.786935      -511.2185
  10   2.0000      -9.959451      -271.0104
  11   2.0000      -9.957785      -270.9651
  12   2.0000      -9.954796      -270.8838
  13   2.0000      -9.947981      -270.6983
  14   2.0000      -9.946137      -270.6482
  15   2.0000      -9.890260      -269.1277
  16   2.0000      -9.887787      -269.0604
  17   2.0000      -9.879337      -268.8304
  18   2.0000      -9.875015      -268.7128
  19   2.0000      -7.689349      -209.2378
  20   2.0000      -7.688940      -209.2267
  21   2.0000      -7.638626      -207.8576
  22   2.0000      -7.632036      -207.6783
  23   2.0000      -6.428891      -174.9390
  24   2.0000      -6.421904      -174.7489
  25   2.0000      -5.717653      -155.5853
  26   2.0000      -5.716948      -155.5661
  27   2.0000      -5.713661      -155.4766
  28   2.0000      -5.713610      -155.4752
  29   2.0000      -5.706112      -155.2712
  30   2.0000      -5.705500      -155.2546
  31   2.0000      -5.667290      -154.2148
  32   2.0000      -5.660973      -154.0429
  33   2.0000      -5.659360      -153.9990
  34   2.0000      -5.658935      -153.9875
  35   2.0000      -5.652737      -153.8188
  36   2.0000      -5.652109      -153.8017
  37   2.0000      -4.651478      -126.5732
  38   2.0000      -4.650595      -126.5491
  39   2.0000      -4.649393      -126.5164
  40   2.0000      -4.644201      -126.3751
  41   2.0000      -4.643834      -126.3652
  42   2.0000      -4.642446      -126.3274
  43   2.0000      -0.992350       -27.0032
  44   2.0000      -0.982379       -26.7319
  45   2.0000      -0.952115       -25.9084
  46   2.0000      -0.942240       -25.6396
  47   2.0000      -0.763823       -20.7847
  48   2.0000      -0.724202       -19.7065
  49   2.0000      -0.706757       -19.2318
  50   2.0000      -0.692674       -18.8486
  51   2.0000      -0.682300       -18.5663
  52   2.0000      -0.674951       -18.3664
  53   2.0000      -0.656391       -17.8613
  54   2.0000      -0.640750       -17.4357
  55   2.0000      -0.605503       -16.4766
  56   2.0000      -0.594124       -16.1669
  57   2.0000      -0.578455       -15.7406
  58   2.0000      -0.566952       -15.4275
  59   2.0000      -0.560752       -15.2588
  60   2.0000      -0.498655       -13.5691
  61   2.0000      -0.489149       -13.3104
  62   2.0000      -0.478536       -13.0216
  63   2.0000      -0.468931       -12.7603
  64   2.0000      -0.456526       -12.4227
  65   2.0000      -0.449606       -12.2344
  66   2.0000      -0.445309       -12.1175
  67   2.0000      -0.437194       -11.8967
  68   2.0000      -0.427501       -11.6329
  69   2.0000      -0.419156       -11.4058
  70   2.0000      -0.408776       -11.1234
  71   2.0000      -0.399020       -10.8579
  72   2.0000      -0.396666       -10.7938
  73   2.0000      -0.390107       -10.6153
  74   2.0000      -0.387787       -10.5522
  75   2.0000      -0.383015       -10.4224
  76   2.0000      -0.365704        -9.9513
  77   2.0000      -0.359875        -9.7927
  78   2.0000      -0.353818        -9.6279
  79   2.0000      -0.349686        -9.5154
  80   2.0000      -0.348623        -9.4865
  81   2.0000      -0.343649        -9.3512
  82   2.0000      -0.341942        -9.3047
  83   2.0000      -0.335746        -9.1361
  84   2.0000      -0.326142        -8.8748
  85   2.0000      -0.319049        -8.6818
  86   2.0000      -0.317136        -8.6297
  87   2.0000      -0.300610        -8.1800
  88   2.0000      -0.293122        -7.9763
  89   2.0000      -0.287427        -7.8213
  90   2.0000      -0.283108        -7.7038
  91   2.0000      -0.277773        -7.5586
  92   2.0000      -0.270842        -7.3700
  93   2.0000      -0.268534        -7.3072
  94   2.0000      -0.263864        -7.1801
  95   2.0000      -0.228419        -6.2156
  96   2.0000      -0.221329        -6.0227
  97   2.0000      -0.214122        -5.8266
  98   2.0000      -0.209321        -5.6959
  99   2.0000      -0.203030        -5.5247
 100   2.0000      -0.202384        -5.5071
 101   0.0000      -0.041905        -1.1403
 102   0.0000      -0.028510        -0.7758
 103   0.0000      -0.022876        -0.6225
 104   0.0000       0.001188         0.0323
 105   0.0000       0.019281         0.5247

MULLIKEN ATOMIC CHARGES
-----------------------
   0 C :   -0.373160
   1 C :    0.009378
   2 O :   -0.370974
   3 P :    0.596194
   4 S :   -0.321252
   5 O :   -0.369078
   6 C :   -0.005673
   7 C :   -0.307054
   8 S :   -0.073092
   9 C :   -0.358889
  10 S :   -0.077579
  11 P :    0.622247
  12 S :   -0.321571
  13 O :   -0.368107
  14 C :   -0.013744
  15 C :   -0.318152
  16 O :   -0.374280
  17 C :    0.004276
  18 C :   -0.318304
  19 H :    0.166420
  20 H :    0.116702
  21 H :    0.121914
  22 H :    0.109991
  23 H :    0.107568
  24 H :    0.109999
  25 H :    0.106170
  26 H :    0.121072
  27 H :    0.113165
  28 H :    0.119063
  29 H :    0.206151
  30 H :    0.188000
  31 H :    0.113233
  32 H :    0.107170
  33 H :    0.127259
  34 H :    0.123172
  35 H :    0.109515
  36 H :    0.111173
  37 H :    0.104624
  38 H :    0.107281
  39 H :    0.132000
  40 H :    0.117172
Sum of atomic charges:   -0.0000000

LOEWDIN ATOMIC CHARGES
----------------------
   0 C :   -0.377934
   1 C :   -0.116526
   2 O :   -0.240674
   3 P :    0.573605
   4 S :   -0.310767
   5 O :   -0.245564
   6 C :   -0.118947
   7 C :   -0.364313
   8 S :    0.095167
   9 C :   -0.475827
  10 S :    0.095053
  11 P :    0.573919
  12 S :   -0.316798
  13 O :   -0.241847
  14 C :   -0.123455
  15 C :   -0.370381
  16 O :   -0.238306
  17 C :   -0.114236
  18 C :   -0.368965
  19 H :    0.127658
  20 H :    0.132338
  21 H :    0.125018
  22 H :    0.111309
  23 H :    0.120015
  24 H :    0.109782
  25 H :    0.119313
  26 H :    0.122317
  27 H :    0.130890
  28 H :    0.127521
  29 H :    0.128682
  30 H :    0.138141
  31 H :    0.108219
  32 H :    0.114831
  33 H :    0.118911
  34 H :    0.120562
  35 H :    0.129387
  36 H :    0.110368
  37 H :    0.119302
  38 H :    0.128628
  39 H :    0.123439
  40 H :    0.120166

  Mayer bond orders larger than 0.100000
B(  0-C ,  1-C ) :   1.1637 B(  0-C , 19-H ) :   0.9159 B(  0-C , 20-H ) :   0.9362
B(  0-C , 21-H ) :   0.9430 B(  1-C ,  2-O ) :   0.9045 B(  1-C , 22-H ) :   0.9172
B(  1-C , 23-H ) :   0.9324 B(  2-O ,  3-P ) :   1.1103 B(  3-P ,  4-S ) :   1.5888
B(  3-P ,  5-O ) :   1.1131 B(  3-P ,  8-S ) :   0.9800 B(  4-S ,  8-S ) :   0.1140
B(  5-O ,  6-C ) :   0.9089 B(  6-C ,  7-C ) :   1.1654 B(  6-C , 24-H ) :   0.9157
B(  6-C , 25-H ) :   0.9344 B(  7-C , 26-H ) :   0.9380 B(  7-C , 27-H ) :   0.9386
B(  7-C , 28-H ) :   0.9461 B(  8-S ,  9-C ) :   0.9748 B(  9-C , 10-S ) :   1.0043
B(  9-C , 29-H ) :   0.8596 B(  9-C , 30-H ) :   0.9097 B( 10-S , 11-P ) :   0.9620
B( 11-P , 12-S ) :   1.6369 B( 11-P , 13-O ) :   1.0815 B( 11-P , 16-O ) :   1.1145
B( 13-O , 14-C ) :   0.9032 B( 14-C , 15-C ) :   1.1669 B( 14-C , 31-H ) :   0.9126
B( 14-C , 32-H ) :   0.9260 B( 15-C , 33-H ) :   0.9388 B( 15-C , 34-H ) :   0.9358
B( 15-C , 35-H ) :   0.9383 B( 16-O , 17-C ) :   0.8981 B( 17-C , 18-C ) :   1.1665
B( 17-C , 36-H ) :   0.9195 B( 17-C , 37-H ) :   0.9325 B( 18-C , 38-H ) :   0.9378
B( 18-C , 39-H ) :   0.9366 B( 18-C , 40-H ) :   0.9360

Dispersion correction           -0.067005526
FINAL SINGLE POINT ENERGY     -2929.520933071434

DIPOLE MOMENT
-------------

Method             : SCF
Type of density    : Electron Density
Multiplicity       :   1
Irrep              :   0
Energy             : -2929.6412823697573913 Eh
Relativity type    :
Basis              : AO
                                X                 Y                 Z
Electronic contribution:    -10.334225639     -12.503745448      -9.913235569
Nuclear contribution   :     11.908479870      12.883519782      10.587308812
                        -----------------------------------------
Total Dipole Moment    :      1.574254231       0.379774334       0.674073242
                        -----------------------------------------
Magnitude (a.u.)       :      1.754103664
Magnitude (Debye)      :      4.458577184

Rotational constants in cm-1:             0.012572             0.005162             0.005008
Rotational constants in MHz :           376.896371           154.744394           150.142653

                             ****ORCA TERMINATED NORMALLY****
TOTAL RUN TIME: 0 days 0 hours 0 minutes 22 seconds 24 msec
