                         Program Version 6.0.0  -   RELEASE  -
|  1> ! r2scan-3c def2/J RI DEFGRID2 scfconv6 printgap
|  2> %output
|  3>     printlevel normal
|  4> end
|  5> * xyz 0 1
|  6> C 2.5982271719 -2.954495162 -1.4360864613
|  7> C 3.4342396224 -1.7657912484 -1.8619766742
|  8> O 3.5900446647 -0.7876774243 -0.8084572509
|  9> P 2.425847294 0.0137511995 -0.0852074631
| 10> S 3.1697994141 1.59082678 0.7942808171
| 11> O 1.6821611219 -1.0220955868 0.8794539465
| 12> C 1.9593522788 -1.1335410409 2.2897653414
| 13> C 0.935727465 -0.3731416969 3.109098832
| 14> S 0.9768384413 0.2858830802 -1.5988365547
| 15> C 0.2549258206 1.8181003863 -0.9588778503
| 16> S -0.5933528263 1.612607465 0.6285138726
| 17> P -2.0307155222 0.2125423463 -0.03358919
| 18> S -2.7376354926 0.4408193694 -1.8519203164
| 19> O -3.1216753804 0.2028186788 1.1220704405
| 20> C -4.2708350074 1.0665293277 1.1090570647
| 21> C -3.8959939825 2.520171993 1.314398725
| 22> O -1.255783347 -1.1360969094 0.2646339763
| 23> C -1.5568576727 -2.3658291787 -0.4230248287
| 24> C -2.9265278101 -2.8961462507 -0.0546760285
| 25> H 3.0280232388 -3.4223282183 -0.5540300069
| 26> H 1.5831875461 -2.6335127193 -1.2096941008
| 27> H 2.5685532956 -3.6755389448 -2.2469627035
| 28> H 2.9887984894 -1.267913392 -2.7273099883
| 29> H 4.4618010784 -2.0541407223 -2.0896011782
| 30> H 1.9138109622 -2.2048266226 2.4942164477
| 31> H 2.9689308537 -0.7619003471 2.4894628831
| 32> H -0.0694862711 -0.6687846906 2.8179985046
| 33> H 1.0868464821 -0.591631069 4.1613263865
| 34> H 1.0447403537 0.6974128243 2.9484767366
| 35> H -0.4533245056 2.1542303834 -1.7155790233
| 36> H 1.0428321006 2.5521301369 -0.7927165413
| 37> H -4.7907174207 0.9356466572 0.1544848349
| 38> H -4.8902438931 0.6912620635 1.9247743507
| 39> H -3.3330747183 2.8855009835 0.4564518567
| 40> H -4.7989089075 3.1129564854 1.4205687954
| 41> H -3.2834951394 2.6306020811 2.2057887567
| 42> H -1.486674361 -2.1861157535 -1.5010111785
| 43> H -0.7621871449 -3.0433419236 -0.1066025211
| 44> H -3.0757832345 -3.8645398717 -0.5218171306
| 45> H -3.0150026726 -2.9949298168 1.0240456218
| 46> H -3.6947997328 -2.2100017334 -0.4096282023
| 47> *
| 48>
| 49>                          ****END OF INPUT****

CARTESIAN COORDINATES (ANGSTROEM)
---------------------------------
  C      2.598227   -2.954495   -1.436086
  C      3.434240   -1.765791   -1.861977
  O      3.590045   -0.787677   -0.808457
  P      2.425847    0.013751   -0.085207
  S      3.169799    1.590827    0.794281
  O      1.682161   -1.022096    0.879454
  C      1.959352   -1.133541    2.289765
  C      0.935727   -0.373142    3.109099
  S      0.976838    0.285883   -1.598837
  C      0.254926    1.818100   -0.958878
  S     -0.593353    1.612607    0.628514
  P     -2.030716    0.212542   -0.033589
  S     -2.737635    0.440819   -1.851920
  O     -3.121675    0.202819    1.122070
  C     -4.270835    1.066529    1.109057
  C     -3.895994    2.520172    1.314399
  O     -1.255783   -1.136097    0.264634
  C     -1.556858   -2.365829   -0.423025
  C     -2.926528   -2.896146   -0.054676
  H      3.028023   -3.422328   -0.554030
  H      1.583188   -2.633513   -1.209694
  H      2.568553   -3.675539   -2.246963
  H      2.988798   -1.267913   -2.727310
  H      4.461801   -2.054141   -2.089601
  H      1.913811   -2.204827    2.494216
  H      2.968931   -0.761900    2.489463
  H     -0.069486   -0.668785    2.817999
  H      1.086846   -0.591631    4.161326
  H      1.044740    0.697413    2.948477
  H     -0.453325    2.154230   -1.715579
  H      1.042832    2.552130   -0.792717
  H     -4.790717    0.935647    0.154485
  H     -4.890244    0.691262    1.924774
  H     -3.333075    2.885501    0.456452
  H     -4.798909    3.112956    1.420569
  H     -3.283495    2.630602    2.205789
  H     -1.486674   -2.186116   -1.501011
  H     -0.762187   -3.043342   -0.106603
  H     -3.075783   -3.864540   -0.521817
  H     -3.015003   -2.994930    1.024046
  H     -3.694800   -2.210002   -0.409628

 Total Charge           Charge          ....    0
 Multiplicity           Mult            ....    1
 Number of Electrons    NEL             ....  202
 Basis Dimension        Dim             ....  539

ORBITAL ENERGIES
----------------

  NO   OCC          E(Eh)            E(eV)
   0   2.0000     -88.576641     -2410.2929
   1   2.0000     -88.575100     -2410.2510
   2   2.0000     -88.523957     -2408.8593
   3   2.0000     -88.515810     -2408.6376
   4   2.0000     -76.915359     -2092.9733
   5   2.0000     -76.912123     -2092.8853
   6   2.0000     -18.995311      -516.8887
   7   2.0000     -18.988754      -516.7103
   8   2.0000     -18.988647      -516.7074
   9   2.0000     -18.982975      -516.5530
  10   2.0000     -10.107878      -275.0493
  11   2.0000     -10.105679      -274.9895
  12   2.0000     -10.100901      -274.8595
  13   2.0000     -10.099019      -274.8083
  14   2.0000     -10.093639      -274.6619
  15   2.0000     -10.037274      -273.1281
  16   2.0000     -10.030445      -272.9423
  17   2.0000     -10.030227      -272.9364
  18   2.0000     -10.018343      -272.6130
  19   2.0000      -7.871197      -214.1862
  20   2.0000      -7.869563      -214.1417
  21   2.0000      -7.818690      -212.7574
  22   2.0000      -7.810744      -212.5411
  23   2.0000      -6.593960      -179.4308
  24   2.0000      -6.590257      -179.3300
  25   2.0000      -5.818126      -158.3193
  26   2.0000      -5.816481      -158.2745
  27   2.0000      -5.815045      -158.2354
  28   2.0000      -5.813480      -158.1928
  29   2.0000      -5.808203      -158.0492
  30   2.0000      -5.806538      -158.0039
  31   2.0000      -5.766296      -156.9089
  32   2.0000      -5.758972      -156.7096
  33   2.0000      -5.758742      -156.7033
  34   2.0000      -5.758539      -156.6978
  35   2.0000      -5.751280      -156.5003
  36   2.0000      -5.750308      -156.4738
  37   2.0000      -4.739318      -128.9634
  38   2.0000      -4.738826      -128.9500
  39   2.0000      -4.737870      -128.9240
  40   2.0000      -4.736055      -128.8746
  41   2.0000      -4.734989      -128.8456
  42   2.0000      -4.733958      -128.8176
  43   2.0000      -1.051637       -28.6165
  44   2.0000      -1.041693       -28.3459
  45   2.0000      -1.012495       -27.5514
  46   2.0000      -1.004696       -27.3392
  47   2.0000      -0.804169       -21.8825
  48   2.0000      -0.759101       -20.6562
  49   2.0000      -0.750795       -20.4302
  50   2.0000      -0.733660       -19.9639
  51   2.0000      -0.731897       -19.9159
  52   2.0000      -0.710611       -19.3367
  53   2.0000      -0.686669       -18.6852
  54   2.0000      -0.671118       -18.2620
  55   2.0000      -0.635104       -17.2821
  56   2.0000      -0.622300       -16.9336
  57   2.0000      -0.610376       -16.6092
  58   2.0000      -0.607048       -16.5186
  59   2.0000      -0.589677       -16.0459
  60   2.0000      -0.524305       -14.2671
  61   2.0000      -0.517613       -14.0850
  62   2.0000      -0.494854       -13.4656
  63   2.0000      -0.492963       -13.4142
  64   2.0000      -0.475956       -12.9514
  65   2.0000      -0.465223       -12.6594
  66   2.0000      -0.460483       -12.5304
  67   2.0000      -0.453753       -12.3472
  68   2.0000      -0.447149       -12.1675
  69   2.0000      -0.431750       -11.7485
  70   2.0000      -0.423808       -11.5324
  71   2.0000      -0.414588       -11.2815
  72   2.0000      -0.413150       -11.2424
  73   2.0000      -0.405860       -11.0440
  74   2.0000      -0.397698       -10.8219
  75   2.0000      -0.387595       -10.5470
  76   2.0000      -0.383488       -10.4352
  77   2.0000      -0.374669       -10.1953
  78   2.0000      -0.370106       -10.0711
  79   2.0000      -0.369077       -10.0431
  80   2.0000      -0.363139        -9.8815
  81   2.0000      -0.360805        -9.8180
  82   2.0000      -0.359969        -9.7952
  83   2.0000      -0.353809        -9.6276
  84   2.0000      -0.349771        -9.5177
  85   2.0000      -0.333661        -9.0794
  86   2.0000      -0.322532        -8.7765
  87   2.0000      -0.315278        -8.5792
  88   2.0000      -0.311680        -8.4812
  89   2.0000      -0.301100        -8.1934
  90   2.0000      -0.293137        -7.9767
  91   2.0000      -0.292317        -7.9543
  92   2.0000      -0.286712        -7.8018
  93   2.0000      -0.280862        -7.6426
  94   2.0000      -0.272803        -7.4233
  95   2.0000      -0.242906        -6.6098
  96   2.0000      -0.229825        -6.2539
  97   2.0000      -0.228084        -6.2065
  98   2.0000      -0.221074        -6.0157
  99   2.0000      -0.213149        -5.8001
 100   2.0000      -0.209116        -5.6903
 101   0.0000      -0.048427        -1.3178
 102   0.0000      -0.026953        -0.7334
 103   0.0000      -0.001995        -0.0543
 104   0.0000       0.006452         0.1756
 105   0.0000       0.007819         0.2128

MULLIKEN ATOMIC CHARGES
-----------------------
   0 C :   -0.427168
   1 C :   -0.172924
   2 O :   -0.261648
   3 P :    0.646082
   4 S :   -0.457266
   5 O :   -0.239275
   6 C :   -0.135072
   7 C :   -0.466553
   8 S :   -0.160347
   9 C :   -0.247447
  10 S :   -0.107539
  11 P :    0.683353
  12 S :   -0.484750
  13 O :   -0.303389
  14 C :   -0.152338
  15 C :   -0.449700
  16 O :   -0.250369
  17 C :   -0.167594
  18 C :   -0.450663
  19 H :    0.156099
  20 H :    0.160768
  21 H :    0.152393
  22 H :    0.164833
  23 H :    0.156000
  24 H :    0.143555
  25 H :    0.161148
  26 H :    0.162341
  27 H :    0.139226
  28 H :    0.180166
  29 H :    0.211084
  30 H :    0.211697
  31 H :    0.171494
  32 H :    0.148743
  33 H :    0.176198
  34 H :    0.148591
  35 H :    0.156443
  36 H :    0.177279
  37 H :    0.153640
  38 H :    0.146857
  39 H :    0.156143
  40 H :    0.169905
Sum of atomic charges:    0.0000000

LOEWDIN ATOMIC CHARGES
----------------------
   0 C :   -0.401082
   1 C :    0.020600
   2 O :   -0.662611
   3 P :    0.387901
   4 S :   -0.102737
   5 O :   -0.684574
   6 C :    0.022605
   7 C :   -0.407198
   8 S :    0.166521
   9 C :   -0.417578
  10 S :    0.180178
  11 P :    0.378807
  12 S :   -0.130250
  13 O :   -0.661262
  14 C :    0.019764
  15 C :   -0.406516
  16 O :   -0.675116
  17 C :    0.013977
  18 C :   -0.399591
  19 H :    0.161676
  20 H :    0.165231
  21 H :    0.160218
  22 H :    0.174887
  23 H :    0.183820
  24 H :    0.174742
  25 H :    0.178170
  26 H :    0.163692
  27 H :    0.155148
  28 H :    0.167167
  29 H :    0.189752
  30 H :    0.192528
  31 H :    0.179439
  32 H :    0.179657
  33 H :    0.165354
  34 H :    0.159525
  35 H :    0.160782
  36 H :    0.180939
  37 H :    0.180013
  38 H :    0.159264
  39 H :    0.160639
  40 H :    0.165519

  Mayer bond orders larger than 0.100000
B(  0-C ,  1-C ) :   0.9265 B(  0-C , 19-H ) :   0.9703 B(  0-C , 20-H ) :   0.9566
B(  0-C , 21-H ) :   0.9631 B(  1-C ,  2-O ) :   0.8039 B(  1-C , 22-H ) :   0.9689
B(  1-C , 23-H ) :   0.9556 B(  2-O ,  3-P ) :   1.1396 B(  3-P ,  4-S ) :   1.8293
B(  3-P ,  5-O ) :   1.0640 B(  3-P ,  8-S ) :   1.0404 B(  5-O ,  6-C ) :   0.7773
B(  6-C ,  7-C ) :   0.9431 B(  6-C , 24-H ) :   0.9646 B(  6-C , 25-H ) :   0.9632
B(  7-C , 26-H ) :   0.9689 B(  7-C , 27-H ) :   0.9621 B(  7-C , 28-H ) :   0.9620
B(  8-S ,  9-C ) :   0.9033 B(  9-C , 10-S ) :   0.9002 B(  9-C , 29-H ) :   0.9134
B(  9-C , 30-H ) :   0.9099 B( 10-S , 11-P ) :   1.0934 B( 11-P , 12-S ) :   1.7432
B( 11-P , 13-O ) :   1.0616 B( 11-P , 16-O ) :   1.1388 B( 13-O , 14-C ) :   0.8129
B( 14-C , 15-C ) :   0.9234 B( 14-C , 31-H ) :   0.9672 B( 14-C , 32-H ) :   0.9580
B( 15-C , 33-H ) :   0.9627 B( 15-C , 34-H ) :   0.9587 B( 15-C , 35-H ) :   0.9683
B( 16-O , 17-C ) :   0.7869 B( 17-C , 18-C ) :   0.9238 B( 17-C , 36-H ) :   0.9627
B( 17-C , 37-H ) :   0.9603 B( 18-C , 38-H ) :   0.9619 B( 18-C , 39-H ) :   0.9729
B( 18-C , 40-H ) :   0.9601

Dispersion correction           -0.022513976
FINAL SINGLE POINT ENERGY     -2932.459238307024

DIPOLE MOMENT
-------------

Method             : SCF
Type of density    : Electron Density
Multiplicity       :   1
Irrep              :   0
Energy             : -2932.4831694650088139 Eh
Relativity type    :
Basis              : AO
                                X                 Y                 Z
Electronic contribution:      9.869640102      13.854093069      -7.567364221
Nuclear contribution   :    -10.651566558     -15.292060061       7.900689536
                        -----------------------------------------
Total Dipole Moment    :     -0.781926456      -1.437966992       0.333325315
                        -----------------------------------------
Magnitude (a.u.)       :      1.670408279
Magnitude (Debye)      :      4.245840423

Rotational constants in cm-1:             0.011943             0.005702             0.005200
Rotational constants in MHz :           358.038578           170.947622           155.897567

                             ****ORCA TERMINATED NORMALLY****
TOTAL RUN TIME: 0 days 0 hours 1 minutes 25 seconds 380 msec
