                         Program Version 6.0.0  -   RELEASE  -
|  1> ! r2scan-3c def2/J RI DEFGRID2 scfconv6 printgap
|  2> %output
|  3>     printlevel normal
|  4> end
|  5> %cpcm
|  6>     smd true
|  7>     smdsolvent "water"
|  8> end
|  9> * xyz 0 1
| 10> C 2.5982271719 -2.954495162 -1.4360864613
| 11> C 3.4342396224 -1.7657912484 -1.8619766742
| 12> O 3.5900446647 -0.7876774243 -0.8084572509
| 13> P 2.425847294 0.0137511995 -0.0852074631
| 14> S 3.1697994141 1.59082678 0.7942808171
| 15> O 1.6821611219 -1.0220955868 0.8794539465
| 16> C 1.9593522788 -1.1335410409 2.2897653414
| 17> C 0.935727465 -0.3731416969 3.109098832
| 18> S 0.9768384413 0.2858830802 -1.5988365547
| 19> C 0.2549258206 1.8181003863 -0.9588778503
| 20> S -0.5933528263 1.612607465 0.6285138726
| 21> P -2.0307155222 0.2125423463 -0.03358919
| 22> S -2.7376354926 0.4408193694 -1.8519203164
| 23> O -3.1216753804 0.2028186788 1.1220704405
| 24> C -4.2708350074 1.0665293277 1.1090570647
| 25> C -3.8959939825 2.520171993 1.314398725
| 26> O -1.255783347 -1.1360969094 0.2646339763
| 27> C -1.5568576727 -2.3658291787 -0.4230248287
| 28> C -2.9265278101 -2.8961462507 -0.0546760285
| 29> H 3.0280232388 -3.4223282183 -0.5540300069
| 30> H 1.5831875461 -2.6335127193 -1.2096941008
| 31> H 2.5685532956 -3.6755389448 -2.2469627035
| 32> H 2.9887984894 -1.267913392 -2.7273099883
| 33> H 4.4618010784 -2.0541407223 -2.0896011782
| 34> H 1.9138109622 -2.2048266226 2.4942164477
| 35> H 2.9689308537 -0.7619003471 2.4894628831
| 36> H -0.0694862711 -0.6687846906 2.8179985046
| 37> H 1.0868464821 -0.591631069 4.1613263865
| 38> H 1.0447403537 0.6974128243 2.9484767366
| 39> H -0.4533245056 2.1542303834 -1.7155790233
| 40> H 1.0428321006 2.5521301369 -0.7927165413
| 41> H -4.7907174207 0.9356466572 0.1544848349
| 42> H -4.8902438931 0.6912620635 1.9247743507
| 43> H -3.3330747183 2.8855009835 0.4564518567
| 44> H -4.7989089075 3.1129564854 1.4205687954
| 45> H -3.2834951394 2.6306020811 2.2057887567
| 46> H -1.486674361 -2.1861157535 -1.5010111785
| 47> H -0.7621871449 -3.0433419236 -0.1066025211
| 48> H -3.0757832345 -3.8645398717 -0.5218171306
| 49> H -3.0150026726 -2.9949298168 1.0240456218
| 50> H -3.6947997328 -2.2100017334 -0.4096282023
| 51> *
| 52>
| 53>                          ****END OF INPUT****

CARTESIAN COORDINATES (ANGSTROEM)
---------------------------------
  C      2.598227   -2.954495   -1.436086
  C      3.434240   -1.765791   -1.861977
  O      3.590045   -0.787677   -0.808457
  P      2.425847    0.013751   -0.085207
  S      3.169799    1.590827    0.794281
  O      1.682161   -1.022096    0.879454
  C      1.959352   -1.133541    2.289765
  C      0.935727   -0.373142    3.109099
  S      0.976838    0.285883   -1.598837
  C      0.254926    1.818100   -0.958878
  S     -0.593353    1.612607    0.628514
  P     -2.030716    0.212542   -0.033589
  S     -2.737635    0.440819   -1.851920
  O     -3.121675    0.202819    1.122070
  C     -4.270835    1.066529    1.109057
  C     -3.895994    2.520172    1.314399
  O     -1.255783   -1.136097    0.264634
  C     -1.556858   -2.365829   -0.423025
  C     -2.926528   -2.896146   -0.054676
  H      3.028023   -3.422328   -0.554030
  H      1.583188   -2.633513   -1.209694
  H      2.568553   -3.675539   -2.246963
  H      2.988798   -1.267913   -2.727310
  H      4.461801   -2.054141   -2.089601
  H      1.913811   -2.204827    2.494216
  H      2.968931   -0.761900    2.489463
  H     -0.069486   -0.668785    2.817999
  H      1.086846   -0.591631    4.161326
  H      1.044740    0.697413    2.948477
  H     -0.453325    2.154230   -1.715579
  H      1.042832    2.552130   -0.792717
  H     -4.790717    0.935647    0.154485
  H     -4.890244    0.691262    1.924774
  H     -3.333075    2.885501    0.456452
  H     -4.798909    3.112956    1.420569
  H     -3.283495    2.630602    2.205789
  H     -1.486674   -2.186116   -1.501011
  H     -0.762187   -3.043342   -0.106603
  H     -3.075783   -3.864540   -0.521817
  H     -3.015003   -2.994930    1.024046
  H     -3.694800   -2.210002   -0.409628

 Total Charge           Charge          ....    0
 Multiplicity           Mult            ....    1
 Number of Electrons    NEL             ....  202
 Basis Dimension        Dim             ....  539

ORBITAL ENERGIES
----------------

  NO   OCC          E(Eh)            E(eV)
   0   2.0000     -88.580578     -2410.4001
   1   2.0000     -88.577399     -2410.3136
   2   2.0000     -88.528636     -2408.9867
   3   2.0000     -88.527229     -2408.9484
   4   2.0000     -76.919599     -2093.0887
   5   2.0000     -76.918499     -2093.0588
   6   2.0000     -18.995678      -516.8987
   7   2.0000     -18.992604      -516.8150
   8   2.0000     -18.990569      -516.7597
   9   2.0000     -18.987703      -516.6817
  10   2.0000     -10.106570      -275.0137
  11   2.0000     -10.093637      -274.6618
  12   2.0000     -10.089715      -274.5551
  13   2.0000     -10.088770      -274.5294
  14   2.0000     -10.087623      -274.4982
  15   2.0000     -10.020938      -272.6836
  16   2.0000     -10.018514      -272.6176
  17   2.0000     -10.018261      -272.6107
  18   2.0000     -10.014032      -272.4957
  19   2.0000      -7.875089      -214.2921
  20   2.0000      -7.871910      -214.2056
  21   2.0000      -7.823642      -212.8921
  22   2.0000      -7.822528      -212.8618
  23   2.0000      -6.597773      -179.5345
  24   2.0000      -6.597134      -179.5171
  25   2.0000      -5.822021      -158.4252
  26   2.0000      -5.818912      -158.3406
  27   2.0000      -5.818813      -158.3379
  28   2.0000      -5.815823      -158.2566
  29   2.0000      -5.812128      -158.1560
  30   2.0000      -5.808904      -158.0683
  31   2.0000      -5.771203      -157.0424
  32   2.0000      -5.770209      -157.0154
  33   2.0000      -5.763904      -156.8438
  34   2.0000      -5.763705      -156.8384
  35   2.0000      -5.762996      -156.8191
  36   2.0000      -5.762204      -156.7976
  37   2.0000      -4.743516      -129.0776
  38   2.0000      -4.742480      -129.0494
  39   2.0000      -4.742449      -129.0486
  40   2.0000      -4.742010      -129.0367
  41   2.0000      -4.741592      -129.0253
  42   2.0000      -4.741102      -129.0120
  43   2.0000      -1.052315       -28.6349
  44   2.0000      -1.045499       -28.4495
  45   2.0000      -1.012660       -27.5559
  46   2.0000      -1.008083       -27.4313
  47   2.0000      -0.805749       -21.9255
  48   2.0000      -0.755893       -20.5689
  49   2.0000      -0.743629       -20.2352
  50   2.0000      -0.726333       -19.7645
  51   2.0000      -0.722862       -19.6701
  52   2.0000      -0.709266       -19.3001
  53   2.0000      -0.689330       -18.7576
  54   2.0000      -0.676267       -18.4021
  55   2.0000      -0.632960       -17.2237
  56   2.0000      -0.619865       -16.8674
  57   2.0000      -0.604923       -16.4608
  58   2.0000      -0.598839       -16.2952
  59   2.0000      -0.587730       -15.9930
  60   2.0000      -0.521161       -14.1815
  61   2.0000      -0.513099       -13.9621
  62   2.0000      -0.491628       -13.3779
  63   2.0000      -0.488338       -13.2884
  64   2.0000      -0.474604       -12.9146
  65   2.0000      -0.460722       -12.5369
  66   2.0000      -0.454578       -12.3697
  67   2.0000      -0.449266       -12.2251
  68   2.0000      -0.442419       -12.0388
  69   2.0000      -0.427362       -11.6291
  70   2.0000      -0.420689       -11.4475
  71   2.0000      -0.410902       -11.1812
  72   2.0000      -0.407134       -11.0787
  73   2.0000      -0.403593       -10.9823
  74   2.0000      -0.394283       -10.7290
  75   2.0000      -0.385623       -10.4933
  76   2.0000      -0.383993       -10.4490
  77   2.0000      -0.370945       -10.0939
  78   2.0000      -0.364432        -9.9167
  79   2.0000      -0.358562        -9.7570
  80   2.0000      -0.354191        -9.6380
  81   2.0000      -0.353462        -9.6182
  82   2.0000      -0.352019        -9.5789
  83   2.0000      -0.347261        -9.4495
  84   2.0000      -0.346621        -9.4320
  85   2.0000      -0.329932        -8.9779
  86   2.0000      -0.317085        -8.6283
  87   2.0000      -0.313495        -8.5306
  88   2.0000      -0.304675        -8.2906
  89   2.0000      -0.299359        -8.1460
  90   2.0000      -0.295111        -8.0304
  91   2.0000      -0.290190        -7.8965
  92   2.0000      -0.285377        -7.7655
  93   2.0000      -0.279420        -7.6034
  94   2.0000      -0.274606        -7.4724
  95   2.0000      -0.245624        -6.6838
  96   2.0000      -0.237193        -6.4543
  97   2.0000      -0.233955        -6.3662
  98   2.0000      -0.227585        -6.1929
  99   2.0000      -0.221742        -6.0339
 100   2.0000      -0.219330        -5.9683
 101   0.0000      -0.052400        -1.4259
 102   0.0000      -0.032519        -0.8849
 103   0.0000      -0.004551        -0.1238
 104   0.0000       0.001987         0.0541
 105   0.0000       0.007702         0.2096

MULLIKEN ATOMIC CHARGES
-----------------------
   0 C :   -0.460771
   1 C :   -0.166452
   2 O :   -0.299295
   3 P :    0.659355
   4 S :   -0.514413
   5 O :   -0.261472
   6 C :   -0.130269
   7 C :   -0.491160
   8 S :   -0.165353
   9 C :   -0.259564
  10 S :   -0.118680
  11 P :    0.723530
  12 S :   -0.527342
  13 O :   -0.330870
  14 C :   -0.153077
  15 C :   -0.486223
  16 O :   -0.285580
  17 C :   -0.155374
  18 C :   -0.491901
  19 H :    0.171625
  20 H :    0.161914
  21 H :    0.177411
  22 H :    0.176684
  23 H :    0.179652
  24 H :    0.174265
  25 H :    0.167268
  26 H :    0.163765
  27 H :    0.164902
  28 H :    0.171890
  29 H :    0.235283
  30 H :    0.231219
  31 H :    0.177956
  32 H :    0.175501
  33 H :    0.172682
  34 H :    0.172951
  35 H :    0.169119
  36 H :    0.179642
  37 H :    0.179838
  38 H :    0.172195
  39 H :    0.170036
  40 H :    0.169114
Sum of atomic charges:    0.0000000

LOEWDIN ATOMIC CHARGES
----------------------
   0 C :   -0.400976
   1 C :    0.026978
   2 O :   -0.683388
   3 P :    0.389521
   4 S :   -0.144502
   5 O :   -0.694486
   6 C :    0.027739
   7 C :   -0.409747
   8 S :    0.167004
   9 C :   -0.412049
  10 S :    0.174313
  11 P :    0.384241
  12 S :   -0.155421
  13 O :   -0.672489
  14 C :    0.025403
  15 C :   -0.409928
  16 O :   -0.691997
  17 C :    0.019667
  18 C :   -0.402983
  19 H :    0.165570
  20 H :    0.164218
  21 H :    0.170529
  22 H :    0.180287
  23 H :    0.194080
  24 H :    0.187625
  25 H :    0.180574
  26 H :    0.163175
  27 H :    0.164317
  28 H :    0.162155
  29 H :    0.197444
  30 H :    0.198151
  31 H :    0.181559
  32 H :    0.191002
  33 H :    0.161487
  34 H :    0.168347
  35 H :    0.163589
  36 H :    0.182337
  37 H :    0.191015
  38 H :    0.168688
  39 H :    0.164124
  40 H :    0.162831

  Mayer bond orders larger than 0.100000
B(  0-C ,  1-C ) :   0.9154 B(  0-C , 19-H ) :   0.9693 B(  0-C , 20-H ) :   0.9535
B(  0-C , 21-H ) :   0.9566 B(  1-C ,  2-O ) :   0.7920 B(  1-C , 22-H ) :   0.9590
B(  1-C , 23-H ) :   0.9453 B(  2-O ,  3-P ) :   1.1478 B(  3-P ,  4-S ) :   1.8024
B(  3-P ,  5-O ) :   1.0689 B(  3-P ,  8-S ) :   1.0614 B(  5-O ,  6-C ) :   0.7645
B(  6-C ,  7-C ) :   0.9326 B(  6-C , 24-H ) :   0.9548 B(  6-C , 25-H ) :   0.9613
B(  7-C , 26-H ) :   0.9669 B(  7-C , 27-H ) :   0.9583 B(  7-C , 28-H ) :   0.9644
B(  8-S ,  9-C ) :   0.8896 B(  9-C , 10-S ) :   0.8911 B(  9-C , 29-H ) :   0.9067
B(  9-C , 30-H ) :   0.9048 B( 10-S , 11-P ) :   1.1010 B( 11-P , 12-S ) :   1.7045
B( 11-P , 13-O ) :   1.0699 B( 11-P , 16-O ) :   1.1443 B( 13-O , 14-C ) :   0.8011
B( 14-C , 15-C ) :   0.9100 B( 14-C , 31-H ) :   0.9658 B( 14-C , 32-H ) :   0.9483
B( 15-C , 33-H ) :   0.9638 B( 15-C , 34-H ) :   0.9535 B( 15-C , 35-H ) :   0.9658
B( 16-O , 17-C ) :   0.7771 B( 17-C , 18-C ) :   0.9113 B( 17-C , 36-H ) :   0.9586
B( 17-C , 37-H ) :   0.9497 B( 18-C , 38-H ) :   0.9560 B( 18-C , 39-H ) :   0.9714
B( 18-C , 40-H ) :   0.9599

Dispersion correction           -0.022513976
FINAL SINGLE POINT ENERGY     -2932.469386001676

DIPOLE MOMENT
-------------

Method             : SCF
Type of density    : Electron Density
Multiplicity       :   1
Irrep              :   0
Energy             : -2932.4933171596612738 Eh
Relativity type    :
Basis              : AO
                                X                 Y                 Z
Electronic contribution:      9.578724932      13.330806785      -7.545068653
Nuclear contribution   :    -10.651566558     -15.292060061       7.900689536
                        -----------------------------------------
Total Dipole Moment    :     -1.072841627      -1.961253276       0.355620882
                        -----------------------------------------
Magnitude (a.u.)       :      2.263618736
Magnitude (Debye)      :      5.753661576

Rotational constants in cm-1:             0.011943             0.005702             0.005200
Rotational constants in MHz :           358.038578           170.947622           155.897567

                             ****ORCA TERMINATED NORMALLY****
TOTAL RUN TIME: 0 days 0 hours 2 minutes 1 seconds 645 msec
