                         Program Version 6.0.0  -   RELEASE  -
|  1> ! pbe def2-sv(p) def2/J RI DEFGRID1 loosescf d4 GCP(DFT/SV(P)) printgap
|  2> %output
|  3>     printlevel normal
|  4> end
|  5> * xyz 0 1
|  6> C 0.704857852 -0.7327745412 3.4504510739
|  7> C 1.6963744738 0.0014132469 2.5716875537
|  8> O 2.1388643232 -0.9201102318 1.5414127149
|  9> P 2.6856915653 -0.4679079308 0.1379676789
| 10> S 3.1949461231 -2.0528453785 -0.8899392843
| 11> O 3.8017187492 0.584338844 0.5489253625
| 12> C 4.3867611069 1.5675598321 -0.3252426094
| 13> C 4.9773101619 0.9583790037 -1.5791496871
| 14> S 1.1802265196 0.7597391807 -0.7636541193
| 15> C 0.1279547001 -0.6138982645 -1.2828128638
| 16> S -1.0352832346 -1.1187404081 -0.0007436333
| 17> P -2.4950580436 0.3815257474 -0.4598199159
| 18> S -2.8240289604 0.6640580647 -2.3683222684
| 19> O -1.9797049532 1.7273749871 0.1721175294
| 20> C -1.7050377715 1.914354095 1.5826332308
| 21> C -2.8729659177 2.5947414079 2.2665190304
| 22> O -3.7074815524 -0.0056937813 0.4874415393
| 23> C -4.2994852498 -1.3148314587 0.5840271734
| 24> C -4.7659566982 -1.846993514 -0.754336407
| 25> H 1.1837623373 -1.5918787245 3.9107493493
| 26> H 0.3460529889 -0.0619616115 4.2243416326
| 27> H -0.132529176 -1.087185437 2.8541180292
| 28> H 2.5779708479 0.3168634544 3.132153005
| 29> H 1.2439027113 0.8733502283 2.0897920222
| 30> H 3.6160027043 2.3011323102 -0.5776664871
| 31> H 5.1559592423 2.0337738761 0.2928766282
| 32> H 4.1909429498 0.5153031819 -2.1890407231
| 33> H 5.4782462644 1.7299984906 -2.1548838252
| 34> H 5.6910784169 0.1790751466 -1.3225634132
| 35> H 0.7608436694 -1.4721813007 -1.5177435155
| 36> H -0.4364332972 -0.2863144072 -2.158372042
| 37> H -1.4925174252 0.9430258377 2.0368815453
| 38> H -0.811886306 2.5420888743 1.6037236244
| 39> H -2.6191746168 2.779047893 3.3056356854
| 40> H -3.0906341452 3.5397117201 1.7766395667
| 41> H -3.7570643249 1.9648838095 2.217159951
| 42> H -3.565407235 -1.9896201376 1.0329631352
| 43> H -5.1373419933 -1.1683052291 1.267899356
| 44> H -5.2780474823 -2.7926983745 -0.6087416791
| 45> H -5.4421166161 -1.1402275173 -1.2296161237
| 46> H -3.9145054026 -2.0035136217 -1.4154580244
| 47> *
| 48>
| 49>                          ****END OF INPUT****

CARTESIAN COORDINATES (ANGSTROEM)
---------------------------------
  C      0.704858   -0.732775    3.450451
  C      1.696374    0.001413    2.571688
  O      2.138864   -0.920110    1.541413
  P      2.685692   -0.467908    0.137968
  S      3.194946   -2.052845   -0.889939
  O      3.801719    0.584339    0.548925
  C      4.386761    1.567560   -0.325243
  C      4.977310    0.958379   -1.579150
  S      1.180227    0.759739   -0.763654
  C      0.127955   -0.613898   -1.282813
  S     -1.035283   -1.118740   -0.000744
  P     -2.495058    0.381526   -0.459820
  S     -2.824029    0.664058   -2.368322
  O     -1.979705    1.727375    0.172118
  C     -1.705038    1.914354    1.582633
  C     -2.872966    2.594741    2.266519
  O     -3.707482   -0.005694    0.487442
  C     -4.299485   -1.314831    0.584027
  C     -4.765957   -1.846994   -0.754336
  H      1.183762   -1.591879    3.910749
  H      0.346053   -0.061962    4.224342
  H     -0.132529   -1.087185    2.854118
  H      2.577971    0.316863    3.132153
  H      1.243903    0.873350    2.089792
  H      3.616003    2.301132   -0.577666
  H      5.155959    2.033774    0.292877
  H      4.190943    0.515303   -2.189041
  H      5.478246    1.729998   -2.154884
  H      5.691078    0.179075   -1.322563
  H      0.760844   -1.472181   -1.517744
  H     -0.436433   -0.286314   -2.158372
  H     -1.492517    0.943026    2.036882
  H     -0.811886    2.542089    1.603724
  H     -2.619175    2.779048    3.305636
  H     -3.090634    3.539712    1.776640
  H     -3.757064    1.964884    2.217160
  H     -3.565407   -1.989620    1.032963
  H     -5.137342   -1.168305    1.267899
  H     -5.278047   -2.792698   -0.608742
  H     -5.442117   -1.140228   -1.229616
  H     -3.914505   -2.003514   -1.415458

 Total Charge           Charge          ....    0
 Multiplicity           Mult            ....    1
 Number of Electrons    NEL             ....  202
 Basis Dimension        Dim             ....  334

ORBITAL ENERGIES
----------------

  NO   OCC          E(Eh)            E(eV)
   0   2.0000     -88.046739     -2395.8736
   1   2.0000     -88.045135     -2395.8299
   2   2.0000     -87.985409     -2394.2047
   3   2.0000     -87.983635     -2394.1564
   4   2.0000     -76.430370     -2079.7761
   5   2.0000     -76.427820     -2079.7067
   6   2.0000     -18.802871      -511.6521
   7   2.0000     -18.798691      -511.5384
   8   2.0000     -18.795588      -511.4540
   9   2.0000     -18.793479      -511.3966
  10   2.0000      -9.965297      -271.1695
  11   2.0000      -9.962447      -271.0920
  12   2.0000      -9.961327      -271.0615
  13   2.0000      -9.958706      -270.9902
  14   2.0000      -9.951481      -270.7936
  15   2.0000      -9.891589      -269.1638
  16   2.0000      -9.891516      -269.1618
  17   2.0000      -9.886961      -269.0379
  18   2.0000      -9.884980      -268.9840
  19   2.0000      -7.691420      -209.2942
  20   2.0000      -7.689901      -209.2528
  21   2.0000      -7.630706      -207.6421
  22   2.0000      -7.628965      -207.5947
  23   2.0000      -6.427764      -174.9084
  24   2.0000      -6.425240      -174.8397
  25   2.0000      -5.718960      -155.6208
  26   2.0000      -5.717437      -155.5794
  27   2.0000      -5.715969      -155.5394
  28   2.0000      -5.714458      -155.4983
  29   2.0000      -5.708773      -155.3436
  30   2.0000      -5.707247      -155.3021
  31   2.0000      -5.659853      -154.0124
  32   2.0000      -5.658079      -153.9642
  33   2.0000      -5.651302      -153.7797
  34   2.0000      -5.650622      -153.7612
  35   2.0000      -5.649586      -153.7331
  36   2.0000      -5.648883      -153.7139
  37   2.0000      -4.650752      -126.5534
  38   2.0000      -4.649726      -126.5255
  39   2.0000      -4.648182      -126.4835
  40   2.0000      -4.647656      -126.4692
  41   2.0000      -4.647224      -126.4574
  42   2.0000      -4.645162      -126.4013
  43   2.0000      -0.995514       -27.0893
  44   2.0000      -0.992235       -27.0001
  45   2.0000      -0.952107       -25.9081
  46   2.0000      -0.948532       -25.8109
  47   2.0000      -0.766386       -20.8544
  48   2.0000      -0.726767       -19.7763
  49   2.0000      -0.717913       -19.5354
  50   2.0000      -0.697241       -18.9729
  51   2.0000      -0.693903       -18.8821
  52   2.0000      -0.680308       -18.5121
  53   2.0000      -0.652774       -17.7629
  54   2.0000      -0.640200       -17.4207
  55   2.0000      -0.595293       -16.1987
  56   2.0000      -0.591973       -16.1084
  57   2.0000      -0.581068       -15.8117
  58   2.0000      -0.575978       -15.6732
  59   2.0000      -0.568531       -15.4705
  60   2.0000      -0.513498       -13.9730
  61   2.0000      -0.505688       -13.7605
  62   2.0000      -0.481482       -13.1018
  63   2.0000      -0.478105       -13.0099
  64   2.0000      -0.466576       -12.6962
  65   2.0000      -0.453573       -12.3424
  66   2.0000      -0.443398       -12.0655
  67   2.0000      -0.439977       -11.9724
  68   2.0000      -0.436783       -11.8855
  69   2.0000      -0.420045       -11.4300
  70   2.0000      -0.417155       -11.3514
  71   2.0000      -0.409698       -11.1485
  72   2.0000      -0.398534       -10.8447
  73   2.0000      -0.391556       -10.6548
  74   2.0000      -0.386233       -10.5099
  75   2.0000      -0.370628       -10.0853
  76   2.0000      -0.363347        -9.8872
  77   2.0000      -0.360607        -9.8126
  78   2.0000      -0.358635        -9.7590
  79   2.0000      -0.352001        -9.5784
  80   2.0000      -0.350166        -9.5285
  81   2.0000      -0.349887        -9.5209
  82   2.0000      -0.344526        -9.3750
  83   2.0000      -0.342358        -9.3160
  84   2.0000      -0.341112        -9.2821
  85   2.0000      -0.325551        -8.8587
  86   2.0000      -0.322169        -8.7667
  87   2.0000      -0.302979        -8.2445
  88   2.0000      -0.300315        -8.1720
  89   2.0000      -0.298621        -8.1259
  90   2.0000      -0.294467        -8.0128
  91   2.0000      -0.284703        -7.7472
  92   2.0000      -0.279478        -7.6050
  93   2.0000      -0.269523        -7.3341
  94   2.0000      -0.258017        -7.0210
  95   2.0000      -0.242065        -6.5869
  96   2.0000      -0.225907        -6.1473
  97   2.0000      -0.207022        -5.6334
  98   2.0000      -0.201006        -5.4697
  99   2.0000      -0.199990        -5.4420
 100   2.0000      -0.196548        -5.3483
 101   0.0000      -0.043177        -1.1749
 102   0.0000      -0.030842        -0.8393
 103   0.0000      -0.015637        -0.4255
 104   0.0000      -0.001652        -0.0450
 105   0.0000       0.014249         0.3877

MULLIKEN ATOMIC CHARGES
-----------------------
   0 C :   -0.294409
   1 C :   -0.016113
   2 O :   -0.354257
   3 P :    0.590996
   4 S :   -0.301713
   5 O :   -0.383485
   6 C :   -0.013298
   7 C :   -0.310165
   8 S :   -0.104370
   9 C :   -0.363345
  10 S :   -0.103524
  11 P :    0.590733
  12 S :   -0.301002
  13 O :   -0.347055
  14 C :   -0.037562
  15 C :   -0.279696
  16 O :   -0.380822
  17 C :   -0.014322
  18 C :   -0.310227
  19 H :    0.122768
  20 H :    0.104878
  21 H :    0.134650
  22 H :    0.108588
  23 H :    0.102273
  24 H :    0.115125
  25 H :    0.109671
  26 H :    0.130023
  27 H :    0.112958
  28 H :    0.127690
  29 H :    0.193958
  30 H :    0.195892
  31 H :    0.107288
  32 H :    0.118909
  33 H :    0.107460
  34 H :    0.122048
  35 H :    0.120639
  36 H :    0.115952
  37 H :    0.110299
  38 H :    0.113831
  39 H :    0.128183
  40 H :    0.130553
Sum of atomic charges:    0.0000000

LOEWDIN ATOMIC CHARGES
----------------------
   0 C :   -0.356782
   1 C :   -0.115617
   2 O :   -0.235156
   3 P :    0.568471
   4 S :   -0.304177
   5 O :   -0.246562
   6 C :   -0.113916
   7 C :   -0.368431
   8 S :    0.066333
   9 C :   -0.491668
  10 S :    0.069782
  11 P :    0.569011
  12 S :   -0.301660
  13 O :   -0.231636
  14 C :   -0.118353
  15 C :   -0.357237
  16 O :   -0.243931
  17 C :   -0.114465
  18 C :   -0.368499
  19 H :    0.131125
  20 H :    0.126787
  21 H :    0.120813
  22 H :    0.116530
  23 H :    0.100334
  24 H :    0.109068
  25 H :    0.121481
  26 H :    0.123827
  27 H :    0.130977
  28 H :    0.131102
  29 H :    0.127955
  30 H :    0.128167
  31 H :    0.104577
  32 H :    0.119104
  33 H :    0.128420
  34 H :    0.130196
  35 H :    0.126683
  36 H :    0.109070
  37 H :    0.121491
  38 H :    0.131521
  39 H :    0.131393
  40 H :    0.123870

  Mayer bond orders larger than 0.100000
B(  0-C ,  1-C ) :   1.1680 B(  0-C , 19-H ) :   0.9456 B(  0-C , 20-H ) :   0.9404
B(  0-C , 21-H ) :   0.9324 B(  1-C ,  2-O ) :   0.8867 B(  1-C , 22-H ) :   0.9307
B(  1-C , 23-H ) :   0.9067 B(  2-O ,  3-P ) :   1.1400 B(  3-P ,  4-S ) :   1.6479
B(  3-P ,  5-O ) :   1.0891 B(  3-P ,  8-S ) :   0.9409 B(  4-S ,  8-S ) :   0.1106
B(  4-S , 29-H ) :   0.1109 B(  5-O ,  6-C ) :   0.9116 B(  6-C ,  7-C ) :   1.1668
B(  6-C , 24-H ) :   0.9267 B(  6-C , 25-H ) :   0.9333 B(  7-C , 26-H ) :   0.9320
B(  7-C , 27-H ) :   0.9349 B(  7-C , 28-H ) :   0.9435 B(  8-S ,  9-C ) :   1.0024
B(  9-C , 10-S ) :   1.0026 B(  9-C , 29-H ) :   0.8549 B(  9-C , 30-H ) :   0.8563
B( 10-S , 11-P ) :   0.9402 B( 10-S , 12-S ) :   0.1109 B( 11-P , 12-S ) :   1.6489
B( 11-P , 13-O ) :   1.1412 B( 11-P , 16-O ) :   1.0829 B( 12-S , 30-H ) :   0.1073
B( 13-O , 14-C ) :   0.8930 B( 14-C , 15-C ) :   1.1587 B( 14-C , 31-H ) :   0.9067
B( 14-C , 32-H ) :   0.9284 B( 15-C , 33-H ) :   0.9404 B( 15-C , 34-H ) :   0.9461
B( 15-C , 35-H ) :   0.9421 B( 16-O , 17-C ) :   0.9084 B( 17-C , 18-C ) :   1.1676
B( 17-C , 36-H ) :   0.9259 B( 17-C , 37-H ) :   0.9329 B( 18-C , 38-H ) :   0.9346
B( 18-C , 39-H ) :   0.9434 B( 18-C , 40-H ) :   0.9316

Dispersion correction           -0.064065253
FINAL SINGLE POINT ENERGY     -2929.515406440382

DIPOLE MOMENT
-------------

Method             : SCF
Type of density    : Electron Density
Multiplicity       :   1
Irrep              :   0
Energy             : -2929.6363823827805390 Eh
Relativity type    :
Basis              : AO
                                X                 Y                 Z
Electronic contribution:      4.992126329      -5.035143779     -14.060784851
Nuclear contribution   :     -5.278501618       5.894012005      15.991050117
                        -----------------------------------------
Total Dipole Moment    :     -0.286375289       0.858868226       1.930265266
                        -----------------------------------------
Magnitude (a.u.)       :      2.132038798
Magnitude (Debye)      :      5.419211952

Rotational constants in cm-1:             0.012476             0.004535             0.004295
Rotational constants in MHz :           374.032638           135.944343           128.766899

                             ****ORCA TERMINATED NORMALLY****
TOTAL RUN TIME: 0 days 0 hours 0 minutes 21 seconds 103 msec
