                         Program Version 6.0.0  -   RELEASE  -
|  1> ! pbe def2-sv(p) def2/J RI DEFGRID1 loosescf d4 GCP(DFT/SV(P)) printgap
|  2> %output
|  3>     printlevel normal
|  4> end
|  5> * xyz 0 1
|  6> C 0.6004409494 2.927e-07 -1.14697e-05
|  7> O -0.599892132 4.8897e-06 2.8156e-06
|  8> H 1.1835826079 -0.930807284 4.59917e-05
|  9> H 1.1837335274 0.9307261777 4.5996e-05
| 10> *
| 11>
| 12>                          ****END OF INPUT****

CARTESIAN COORDINATES (ANGSTROEM)
---------------------------------
  C      0.600441    0.000000   -0.000011
  O     -0.599892    0.000005    0.000003
  H      1.183583   -0.930807    0.000046
  H      1.183734    0.930726    0.000046

 Total Charge           Charge          ....    0
 Multiplicity           Mult            ....    1
 Number of Electrons    NEL             ....   16
 Basis Dimension        Dim             ....   32

ORBITAL ENERGIES
----------------

  NO   OCC          E(Eh)            E(eV)
   0   2.0000     -18.769313      -510.7390
   1   2.0000      -9.981122      -271.6001
   2   2.0000      -0.960827       -26.1454
   3   2.0000      -0.567138       -15.4326
   4   2.0000      -0.443048       -12.0560
   5   2.0000      -0.389510       -10.5991
   6   2.0000      -0.363682        -9.8963
   7   2.0000      -0.216990        -5.9046
   8   0.0000      -0.081512        -2.2181
   9   0.0000       0.053760         1.4629
  10   0.0000       0.116438         3.1684
  11   0.0000       0.172931         4.7057
  12   0.0000       0.413304        11.2466

MULLIKEN ATOMIC CHARGES
-----------------------
   0 C :   -0.008805
   1 O :   -0.169684
   2 H :    0.089241
   3 H :    0.089247
Sum of atomic charges:   -0.0000000

LOEWDIN ATOMIC CHARGES
----------------------
   0 C :   -0.055102
   1 O :   -0.105800
   2 H :    0.080450
   3 H :    0.080452

  Mayer bond orders larger than 0.100000
B(  0-C ,  1-O ) :   2.1596 B(  0-C ,  2-H ) :   0.8815 B(  0-C ,  3-H ) :   0.8815

Dispersion correction           -0.000892376
FINAL SINGLE POINT ENERGY      -114.264189531540

DIPOLE MOMENT
-------------

Method             : SCF
Type of density    : Electron Density
Multiplicity       :   1
Irrep              :   0
Energy             :  -114.2779636134533661 Eh
Relativity type    :
Basis              : AO
                                X                 Y                 Z
Electronic contribution:     -1.434631696       0.000074752      -0.000080980
Nuclear contribution   :      2.212058161      -0.000076019       0.000086342
                        -----------------------------------------
Total Dipole Moment    :      0.777426466      -0.000001267       0.000005362
                        -----------------------------------------
Magnitude (a.u.)       :      0.777426466
Magnitude (Debye)      :      1.976061036

Rotational constants in cm-1:             9.652163             1.305540             1.149993
Rotational constants in MHz :        289364.580626         39139.091876         34475.921775

                             ****ORCA TERMINATED NORMALLY****
TOTAL RUN TIME: 0 days 0 hours 0 minutes 3 seconds 420 msec
