                         Program Version 6.0.0  -   RELEASE  -
|  1> ! pbe def2-sv(p) def2/J RI DEFGRID1 loosescf d4 GCP(DFT/SV(P)) printgap
|  2> %output
|  3>     printlevel normal
|  4> end
|  5> * xyz 0 1
|  6> C 3.0685334859 1.4990691803 2.8896269124
|  7> C 1.6834495447 0.9843945104 2.5595853595
|  8> O 1.4856987472 0.8516947014 1.1348361839
|  9> P 2.2639295864 -0.2375769728 0.2859706928
| 10> S 2.6922123093 -1.9119923825 1.217183157
| 11> O 3.5145797964 0.591949442 -0.2348523737
| 12> C 4.681605655 -0.040109711 -0.7887773204
| 13> C 4.3972272673 -0.6940079118 -2.1255517177
| 14> S 0.9871348841 -0.3746587264 -1.393482333
| 15> C -0.105181846 -1.645916945 -0.6987323116
| 16> S -1.1620301765 -1.0273313296 0.6305416313
| 17> P -2.3414304112 0.2598726949 -0.6053070961
| 18> S -2.7022220233 -0.3836007521 -2.4131540978
| 19> O -1.5790764497 1.6409773808 -0.6073585619
| 20> C -1.3173444192 2.4057410922 0.5938771738
| 21> C -2.3220065755 3.5300533539 0.7373848695
| 22> O -3.6153890193 0.5719443844 0.2932757528
| 23> C -4.7950735186 -0.2535198935 0.2755093678
| 24> C -4.5397344954 -1.641134812 0.8263930035
| 25> H 3.26664133 2.4206541886 2.3486785988
| 26> H 3.1393965643 1.6820062601 3.9572164384
| 27> H 3.8157019715 0.7580754132 2.6078335025
| 28> H 0.9070690691 1.6849361756 2.869376885
| 29> H 1.5103893988 0.0082488584 3.0237165453
| 30> H 5.4010416208 0.7743393693 -0.8832296735
| 31> H 5.0472127317 -0.7808670608 -0.0702533137
| 32> H 3.7216504177 -1.5381780068 -1.9919940132
| 33> H 3.9340449186 0.0178515642 -2.8044859787
| 34> H 5.3266619398 -1.052031799 -2.5566240516
| 35> H 0.4950839508 -2.4511021825 -0.2748261449
| 36> H -0.7275820882 -1.9994994097 -1.5206261036
| 37> H -1.3488707226 1.731826 1.4548365833
| 38> H -0.3023641767 2.7865325187 0.4618018676
| 39> H -3.3220975053 3.1255291855 0.8683151361
| 40> H -2.0615340218 4.1321447962 1.602232516
| 41> H -2.309306545 4.1537948335 -0.1521426984
| 42> H -5.506672223 0.2985727995 0.8911247853
| 43> H -5.1580865005 -0.3102877553 -0.7550958714
| 44> H -3.8863432939 -2.1951575893 0.1541543088
| 45> H -4.0680491006 -1.581518777 1.8041282872
| 46> H -5.4834198784 -2.1702274291 0.9124298959
| 47> *
| 48>
| 49>                          ****END OF INPUT****

CARTESIAN COORDINATES (ANGSTROEM)
---------------------------------
  C      3.068533    1.499069    2.889627
  C      1.683450    0.984395    2.559585
  O      1.485699    0.851695    1.134836
  P      2.263930   -0.237577    0.285971
  S      2.692212   -1.911992    1.217183
  O      3.514580    0.591949   -0.234852
  C      4.681606   -0.040110   -0.788777
  C      4.397227   -0.694008   -2.125552
  S      0.987135   -0.374659   -1.393482
  C     -0.105182   -1.645917   -0.698732
  S     -1.162030   -1.027331    0.630542
  P     -2.341430    0.259873   -0.605307
  S     -2.702222   -0.383601   -2.413154
  O     -1.579076    1.640977   -0.607359
  C     -1.317344    2.405741    0.593877
  C     -2.322007    3.530053    0.737385
  O     -3.615389    0.571944    0.293276
  C     -4.795074   -0.253520    0.275509
  C     -4.539734   -1.641135    0.826393
  H      3.266641    2.420654    2.348679
  H      3.139397    1.682006    3.957216
  H      3.815702    0.758075    2.607834
  H      0.907069    1.684936    2.869377
  H      1.510389    0.008249    3.023717
  H      5.401042    0.774339   -0.883230
  H      5.047213   -0.780867   -0.070253
  H      3.721650   -1.538178   -1.991994
  H      3.934045    0.017852   -2.804486
  H      5.326662   -1.052032   -2.556624
  H      0.495084   -2.451102   -0.274826
  H     -0.727582   -1.999499   -1.520626
  H     -1.348871    1.731826    1.454837
  H     -0.302364    2.786533    0.461802
  H     -3.322098    3.125529    0.868315
  H     -2.061534    4.132145    1.602233
  H     -2.309307    4.153795   -0.152143
  H     -5.506672    0.298573    0.891125
  H     -5.158087   -0.310288   -0.755096
  H     -3.886343   -2.195158    0.154154
  H     -4.068049   -1.581519    1.804128
  H     -5.483420   -2.170227    0.912430

 Total Charge           Charge          ....    0
 Multiplicity           Mult            ....    1
 Number of Electrons    NEL             ....  202
 Basis Dimension        Dim             ....  334

ORBITAL ENERGIES
----------------

  NO   OCC          E(Eh)            E(eV)
   0   2.0000     -88.040807     -2395.7122
   1   2.0000     -88.039598     -2395.6793
   2   2.0000     -87.992354     -2394.3937
   3   2.0000     -87.986343     -2394.2301
   4   2.0000     -76.428341     -2079.7209
   5   2.0000     -76.425688     -2079.6487
   6   2.0000     -18.797025      -511.4931
   7   2.0000     -18.796807      -511.4871
   8   2.0000     -18.793148      -511.3875
   9   2.0000     -18.788166      -511.2520
  10   2.0000      -9.955404      -270.9003
  11   2.0000      -9.955016      -270.8898
  12   2.0000      -9.954852      -270.8853
  13   2.0000      -9.951972      -270.8069
  14   2.0000      -9.950775      -270.7744
  15   2.0000      -9.887287      -269.0468
  16   2.0000      -9.885022      -268.9851
  17   2.0000      -9.884919      -268.9823
  18   2.0000      -9.884861      -268.9807
  19   2.0000      -7.685924      -209.1446
  20   2.0000      -7.684416      -209.1036
  21   2.0000      -7.637236      -207.8198
  22   2.0000      -7.631658      -207.6680
  23   2.0000      -6.426080      -174.8625
  24   2.0000      -6.423190      -174.7839
  25   2.0000      -5.713734      -155.4786
  26   2.0000      -5.712142      -155.4353
  27   2.0000      -5.710634      -155.3942
  28   2.0000      -5.709081      -155.3520
  29   2.0000      -5.702736      -155.1793
  30   2.0000      -5.701415      -155.1434
  31   2.0000      -5.665959      -154.1786
  32   2.0000      -5.660595      -154.0326
  33   2.0000      -5.657900      -153.9593
  34   2.0000      -5.657582      -153.9506
  35   2.0000      -5.652160      -153.8031
  36   2.0000      -5.651870      -153.7952
  37   2.0000      -4.648507      -126.4923
  38   2.0000      -4.647794      -126.4729
  39   2.0000      -4.646671      -126.4424
  40   2.0000      -4.646129      -126.4276
  41   2.0000      -4.644819      -126.3920
  42   2.0000      -4.643455      -126.3548
  43   2.0000      -0.990151       -26.9434
  44   2.0000      -0.988522       -26.8990
  45   2.0000      -0.949360       -25.8334
  46   2.0000      -0.944817       -25.7098
  47   2.0000      -0.763401       -20.7732
  48   2.0000      -0.721163       -19.6238
  49   2.0000      -0.709369       -19.3029
  50   2.0000      -0.690728       -18.7957
  51   2.0000      -0.689565       -18.7640
  52   2.0000      -0.675936       -18.3931
  53   2.0000      -0.652414       -17.7531
  54   2.0000      -0.639003       -17.3882
  55   2.0000      -0.604538       -16.4503
  56   2.0000      -0.593480       -16.1494
  57   2.0000      -0.575306       -15.6549
  58   2.0000      -0.573396       -15.6029
  59   2.0000      -0.559259       -15.2182
  60   2.0000      -0.501882       -13.6569
  61   2.0000      -0.494055       -13.4439
  62   2.0000      -0.476716       -12.9721
  63   2.0000      -0.474384       -12.9086
  64   2.0000      -0.458679       -12.4813
  65   2.0000      -0.449274       -12.2254
  66   2.0000      -0.442245       -12.0341
  67   2.0000      -0.436288       -11.8720
  68   2.0000      -0.426965       -11.6183
  69   2.0000      -0.420344       -11.4382
  70   2.0000      -0.410209       -11.1624
  71   2.0000      -0.397994       -10.8300
  72   2.0000      -0.391966       -10.6659
  73   2.0000      -0.389075       -10.5873
  74   2.0000      -0.379067       -10.3149
  75   2.0000      -0.375571       -10.2198
  76   2.0000      -0.367501       -10.0002
  77   2.0000      -0.360973        -9.8226
  78   2.0000      -0.356675        -9.7056
  79   2.0000      -0.353455        -9.6180
  80   2.0000      -0.351006        -9.5514
  81   2.0000      -0.345212        -9.3937
  82   2.0000      -0.344048        -9.3620
  83   2.0000      -0.342102        -9.3091
  84   2.0000      -0.336289        -9.1509
  85   2.0000      -0.322302        -8.7703
  86   2.0000      -0.311515        -8.4768
  87   2.0000      -0.299042        -8.1373
  88   2.0000      -0.296535        -8.0691
  89   2.0000      -0.293816        -7.9951
  90   2.0000      -0.286920        -7.8075
  91   2.0000      -0.278727        -7.5845
  92   2.0000      -0.267732        -7.2854
  93   2.0000      -0.266054        -7.2397
  94   2.0000      -0.259445        -7.0598
  95   2.0000      -0.232666        -6.3312
  96   2.0000      -0.217670        -5.9231
  97   2.0000      -0.215313        -5.8590
  98   2.0000      -0.206900        -5.6300
  99   2.0000      -0.203156        -5.5282
 100   2.0000      -0.200926        -5.4675
 101   0.0000      -0.043445        -1.1822
 102   0.0000      -0.023386        -0.6364
 103   0.0000      -0.001535        -0.0418
 104   0.0000       0.000247         0.0067
 105   0.0000       0.012565         0.3419

MULLIKEN ATOMIC CHARGES
-----------------------
   0 C :   -0.304216
   1 C :   -0.008192
   2 O :   -0.359888
   3 P :    0.609523
   4 S :   -0.338816
   5 O :   -0.370957
   6 C :   -0.005997
   7 C :   -0.316140
   8 S :   -0.054419
   9 C :   -0.375046
  10 S :   -0.090053
  11 P :    0.602112
  12 S :   -0.314160
  13 O :   -0.348180
  14 C :   -0.023310
  15 C :   -0.281776
  16 O :   -0.383985
  17 C :   -0.000983
  18 C :   -0.316178
  19 H :    0.116485
  20 H :    0.112385
  21 H :    0.123703
  22 H :    0.101630
  23 H :    0.114580
  24 H :    0.106640
  25 H :    0.111263
  26 H :    0.127944
  27 H :    0.121796
  28 H :    0.114167
  29 H :    0.191693
  30 H :    0.193965
  31 H :    0.104388
  32 H :    0.117703
  33 H :    0.117747
  34 H :    0.105320
  35 H :    0.119999
  36 H :    0.104526
  37 H :    0.114306
  38 H :    0.128871
  39 H :    0.117461
  40 H :    0.114091
Sum of atomic charges:    0.0000000

LOEWDIN ATOMIC CHARGES
----------------------
   0 C :   -0.364762
   1 C :   -0.117763
   2 O :   -0.237812
   3 P :    0.574797
   4 S :   -0.324163
   5 O :   -0.242769
   6 C :   -0.118966
   7 C :   -0.369268
   8 S :    0.104720
   9 C :   -0.488378
  10 S :    0.074875
  11 P :    0.573254
  12 S :   -0.308694
  13 O :   -0.231262
  14 C :   -0.115380
  15 C :   -0.358410
  16 O :   -0.248829
  17 C :   -0.116105
  18 C :   -0.370745
  19 H :    0.126350
  20 H :    0.130691
  21 H :    0.122829
  22 H :    0.113798
  23 H :    0.111716
  24 H :    0.119371
  25 H :    0.110498
  26 H :    0.121867
  27 H :    0.126256
  28 H :    0.131743
  29 H :    0.128212
  30 H :    0.128984
  31 H :    0.102493
  32 H :    0.120381
  33 H :    0.125130
  34 H :    0.127398
  35 H :    0.128999
  36 H :    0.118205
  37 H :    0.113716
  38 H :    0.121959
  39 H :    0.123428
  40 H :    0.131639

  Mayer bond orders larger than 0.100000
B(  0-C ,  1-C ) :   1.1645 B(  0-C , 19-H ) :   0.9460 B(  0-C , 20-H ) :   0.9387
B(  0-C , 21-H ) :   0.9355 B(  1-C ,  2-O ) :   0.9046 B(  1-C , 22-H ) :   0.9297
B(  1-C , 23-H ) :   0.9167 B(  2-O ,  3-P ) :   1.1178 B(  3-P ,  4-S ) :   1.5832
B(  3-P ,  5-O ) :   1.1125 B(  3-P ,  8-S ) :   0.9703 B(  4-S ,  8-S ) :   0.1097
B(  5-O ,  6-C ) :   0.9062 B(  6-C ,  7-C ) :   1.1665 B(  6-C , 24-H ) :   0.9337
B(  6-C , 25-H ) :   0.9163 B(  7-C , 26-H ) :   0.9353 B(  7-C , 27-H ) :   0.9445
B(  7-C , 28-H ) :   0.9376 B(  8-S ,  9-C ) :   1.0046 B(  9-C , 10-S ) :   1.0056
B(  9-C , 29-H ) :   0.8751 B(  9-C , 30-H ) :   0.8758 B( 10-S , 11-P ) :   0.9459
B( 10-S , 12-S ) :   0.1093 B( 11-P , 12-S ) :   1.6341 B( 11-P , 13-O ) :   1.1439
B( 11-P , 16-O ) :   1.0788 B( 13-O , 14-C ) :   0.8924 B( 14-C , 15-C ) :   1.1562
B( 14-C , 31-H ) :   0.9110 B( 14-C , 32-H ) :   0.9300 B( 15-C , 33-H ) :   0.9427
B( 15-C , 34-H ) :   0.9410 B( 15-C , 35-H ) :   0.9466 B( 16-O , 17-C ) :   0.9051
B( 17-C , 18-C ) :   1.1667 B( 17-C , 36-H ) :   0.9341 B( 17-C , 37-H ) :   0.9188
B( 18-C , 38-H ) :   0.9346 B( 18-C , 39-H ) :   0.9436 B( 18-C , 40-H ) :   0.9367

Dispersion correction           -0.066061255
FINAL SINGLE POINT ENERGY     -2929.524936793805

DIPOLE MOMENT
-------------

Method             : SCF
Type of density    : Electron Density
Multiplicity       :   1
Irrep              :   0
Energy             : -2929.6446007117106092 Eh
Relativity type    :
Basis              : AO
                                X                 Y                 Z
Electronic contribution:     -2.151194487      -8.259027359     -10.415752987
Nuclear contribution   :      2.314487296       9.049811424      11.558643913
                        -----------------------------------------
Total Dipole Moment    :      0.163292809       0.790784064       1.142890926
                        -----------------------------------------
Magnitude (a.u.)       :      1.399358298
Magnitude (Debye)      :      3.556886123

Rotational constants in cm-1:             0.012759             0.004889             0.004521
Rotational constants in MHz :           382.507009           146.575679           135.538040

                             ****ORCA TERMINATED NORMALLY****
TOTAL RUN TIME: 0 days 0 hours 0 minutes 21 seconds 92 msec
