                         Program Version 6.0.0  -   RELEASE  -
|  1> ! pbe def2-sv(p) def2/J RI DEFGRID1 loosescf d4 GCP(DFT/SV(P)) printgap
|  2> %output
|  3>     printlevel normal
|  4> end
|  5> * xyz 0 1
|  6> C 5.4770775088 0.8035267393 -0.344534289
|  7> C 4.9271355254 -0.5450918891 -0.7577130262
|  8> O 3.7013426406 -0.8616725199 -0.0652964445
|  9> P 2.3583182478 -0.0703788573 -0.3290099598
| 10> S 2.0795024806 0.527121009 -2.1785546575
| 11> O 2.4498837214 1.0730591144 0.7724128366
| 12> C 1.5149761469 2.1606261905 0.8676560665
| 13> C 2.1553855555 3.2500700738 1.7028321051
| 14> S 1.0131377909 -1.4794769111 0.4792753976
| 15> C -0.0068538331 -1.8506661952 -0.9951554412
| 16> S -1.7448037797 -2.0250794468 -0.5593586751
| 17> P -2.0900611233 -0.0158355684 0.0724638852
| 18> S -1.3188098101 1.373351632 -1.0688767648
| 19> O -1.5835051155 0.1014247573 1.5573713981
| 20> C -2.0305834255 -0.7773725696 2.6235738427
| 21> C -3.1293311537 -0.1163083377 3.4288233377
| 22> O -3.6677704786 0.0124434368 0.2288802853
| 23> C -4.5329456094 -0.0350842906 -0.9258831751
| 24> C -5.9390284886 0.2857119987 -0.4619681399
| 25> H 6.4452281599 0.9565789645 -0.8110563853
| 26> H 4.7990212422 1.5921475262 -0.6688975259
| 27> H 5.5813816431 0.8516122678 0.7361361743
| 28> H 5.5973466001 -1.3602081518 -0.4822614166
| 29> H 4.7301398599 -0.5688086005 -1.8342212559
| 30> H 1.2734400377 2.5119864445 -0.1415911515
| 31> H 0.5951690928 1.7891635972 1.3308828807
| 32> H 3.0548780784 3.615123638 1.2152589675
| 33> H 1.4518504772 4.0682408217 1.8161364713
| 34> H 2.4169624528 2.8580205697 2.6812944753
| 35> H 0.3025201733 -2.8049121121 -1.4136025757
| 36> H 0.1174159799 -1.0392829317 -1.7187058654
| 37> H -2.3686498644 -1.720359078 2.1860432999
| 38> H -1.1363574129 -0.952622034 3.2245214192
| 39> H -2.7836735175 0.8356826192 3.8219623323
| 40> H -3.9999404658 0.058453531 2.8025998741
| 41> H -3.4037312349 -0.7667505513 4.2532762904
| 42> H -4.1730192033 0.6936688445 -1.6592360612
| 43> H -4.4716259804 -1.0375593917 -1.3576330321
| 44> H -6.2628336571 -0.443363948 0.2749891734
| 45> H -5.9690266856 1.2766204049 -0.0176716773
| 46> H -6.6094537979 0.2558375948 -1.3144866199
| 47> *
| 48>
| 49>                          ****END OF INPUT****

CARTESIAN COORDINATES (ANGSTROEM)
---------------------------------
  C      5.477078    0.803527   -0.344534
  C      4.927136   -0.545092   -0.757713
  O      3.701343   -0.861673   -0.065296
  P      2.358318   -0.070379   -0.329010
  S      2.079502    0.527121   -2.178555
  O      2.449884    1.073059    0.772413
  C      1.514976    2.160626    0.867656
  C      2.155386    3.250070    1.702832
  S      1.013138   -1.479477    0.479275
  C     -0.006854   -1.850666   -0.995155
  S     -1.744804   -2.025079   -0.559359
  P     -2.090061   -0.015836    0.072464
  S     -1.318810    1.373352   -1.068877
  O     -1.583505    0.101425    1.557371
  C     -2.030583   -0.777373    2.623574
  C     -3.129331   -0.116308    3.428823
  O     -3.667770    0.012443    0.228880
  C     -4.532946   -0.035084   -0.925883
  C     -5.939028    0.285712   -0.461968
  H      6.445228    0.956579   -0.811056
  H      4.799021    1.592148   -0.668898
  H      5.581382    0.851612    0.736136
  H      5.597347   -1.360208   -0.482261
  H      4.730140   -0.568809   -1.834221
  H      1.273440    2.511986   -0.141591
  H      0.595169    1.789164    1.330883
  H      3.054878    3.615124    1.215259
  H      1.451850    4.068241    1.816136
  H      2.416962    2.858021    2.681294
  H      0.302520   -2.804912   -1.413603
  H      0.117416   -1.039283   -1.718706
  H     -2.368650   -1.720359    2.186043
  H     -1.136357   -0.952622    3.224521
  H     -2.783674    0.835683    3.821962
  H     -3.999940    0.058454    2.802600
  H     -3.403731   -0.766751    4.253276
  H     -4.173019    0.693669   -1.659236
  H     -4.471626   -1.037559   -1.357633
  H     -6.262834   -0.443364    0.274989
  H     -5.969027    1.276620   -0.017672
  H     -6.609454    0.255838   -1.314487

 Total Charge           Charge          ....    0
 Multiplicity           Mult            ....    1
 Number of Electrons    NEL             ....  202
 Basis Dimension        Dim             ....  334

ORBITAL ENERGIES
----------------

  NO   OCC          E(Eh)            E(eV)
   0   2.0000     -88.045378     -2395.8365
   1   2.0000     -88.036115     -2395.5845
   2   2.0000     -87.982098     -2394.1146
   3   2.0000     -87.981408     -2394.0958
   4   2.0000     -76.426545     -2079.6720
   5   2.0000     -76.419141     -2079.4705
   6   2.0000     -18.799001      -511.5468
   7   2.0000     -18.795935      -511.4634
   8   2.0000     -18.783995      -511.1385
   9   2.0000     -18.782799      -511.1059
  10   2.0000      -9.957941      -270.9693
  11   2.0000      -9.957200      -270.9492
  12   2.0000      -9.951816      -270.8027
  13   2.0000      -9.946664      -270.6625
  14   2.0000      -9.936424      -270.3838
  15   2.0000      -9.893124      -269.2056
  16   2.0000      -9.888743      -269.0864
  17   2.0000      -9.879394      -268.8320
  18   2.0000      -9.878294      -268.8021
  19   2.0000      -7.690450      -209.2678
  20   2.0000      -7.681413      -209.0219
  21   2.0000      -7.627031      -207.5421
  22   2.0000      -7.626494      -207.5274
  23   2.0000      -6.424092      -174.8084
  24   2.0000      -6.417025      -174.6161
  25   2.0000      -5.718234      -155.6010
  26   2.0000      -5.714763      -155.5066
  27   2.0000      -5.709322      -155.3586
  28   2.0000      -5.707759      -155.3160
  29   2.0000      -5.706083      -155.2704
  30   2.0000      -5.698125      -155.0539
  31   2.0000      -5.655792      -153.9019
  32   2.0000      -5.655477      -153.8933
  33   2.0000      -5.647883      -153.6867
  34   2.0000      -5.647113      -153.6657
  35   2.0000      -5.646936      -153.6609
  36   2.0000      -5.646716      -153.6550
  37   2.0000      -4.646977      -126.4507
  38   2.0000      -4.645969      -126.4233
  39   2.0000      -4.644108      -126.3726
  40   2.0000      -4.639261      -126.2407
  41   2.0000      -4.638695      -126.2253
  42   2.0000      -4.637838      -126.2020
  43   2.0000      -0.993103       -27.0237
  44   2.0000      -0.979176       -26.6447
  45   2.0000      -0.950189       -25.8560
  46   2.0000      -0.937328       -25.5060
  47   2.0000      -0.760644       -20.6982
  48   2.0000      -0.722057       -19.6482
  49   2.0000      -0.709129       -19.2964
  50   2.0000      -0.696297       -18.9472
  51   2.0000      -0.681042       -18.5321
  52   2.0000      -0.670556       -18.2468
  53   2.0000      -0.647346       -17.6152
  54   2.0000      -0.631555       -17.1855
  55   2.0000      -0.595048       -16.1921
  56   2.0000      -0.589271       -16.0349
  57   2.0000      -0.572927       -15.5901
  58   2.0000      -0.563326       -15.3289
  59   2.0000      -0.556492       -15.1429
  60   2.0000      -0.511995       -13.9321
  61   2.0000      -0.493650       -13.4329
  62   2.0000      -0.485279       -13.2051
  63   2.0000      -0.469950       -12.7880
  64   2.0000      -0.449935       -12.2434
  65   2.0000      -0.446103       -12.1391
  66   2.0000      -0.443581       -12.0705
  67   2.0000      -0.433349       -11.7920
  68   2.0000      -0.423153       -11.5146
  69   2.0000      -0.414722       -11.2852
  70   2.0000      -0.405353       -11.0302
  71   2.0000      -0.394335       -10.7304
  72   2.0000      -0.391114       -10.6428
  73   2.0000      -0.385097       -10.4790
  74   2.0000      -0.380751       -10.3608
  75   2.0000      -0.367781       -10.0078
  76   2.0000      -0.365953        -9.9581
  77   2.0000      -0.359147        -9.7729
  78   2.0000      -0.355629        -9.6771
  79   2.0000      -0.349287        -9.5046
  80   2.0000      -0.348505        -9.4833
  81   2.0000      -0.343679        -9.3520
  82   2.0000      -0.339076        -9.2267
  83   2.0000      -0.336492        -9.1564
  84   2.0000      -0.330368        -8.9898
  85   2.0000      -0.320138        -8.7114
  86   2.0000      -0.305748        -8.3198
  87   2.0000      -0.304401        -8.2832
  88   2.0000      -0.295992        -8.0544
  89   2.0000      -0.290028        -7.8921
  90   2.0000      -0.279483        -7.6051
  91   2.0000      -0.277994        -7.5646
  92   2.0000      -0.268219        -7.2986
  93   2.0000      -0.263525        -7.1709
  94   2.0000      -0.253737        -6.9045
  95   2.0000      -0.235010        -6.3950
  96   2.0000      -0.218267        -5.9394
  97   2.0000      -0.211023        -5.7422
  98   2.0000      -0.201252        -5.4763
  99   2.0000      -0.194705        -5.2982
 100   2.0000      -0.186996        -5.0884
 101   0.0000      -0.040618        -1.1053
 102   0.0000      -0.030322        -0.8251
 103   0.0000      -0.006775        -0.1844
 104   0.0000       0.015446         0.4203
 105   0.0000       0.020024         0.5449

MULLIKEN ATOMIC CHARGES
-----------------------
   0 C :   -0.308207
   1 C :   -0.001942
   2 O :   -0.369599
   3 P :    0.626377
   4 S :   -0.319634
   5 O :   -0.377809
   6 C :   -0.031739
   7 C :   -0.276990
   8 S :   -0.107805
   9 C :   -0.354907
  10 S :   -0.114256
  11 P :    0.591401
  12 S :   -0.298848
  13 O :   -0.345667
  14 C :   -0.010528
  15 C :   -0.288947
  16 O :   -0.382386
  17 C :   -0.013988
  18 C :   -0.282808
  19 H :    0.109637
  20 H :    0.124898
  21 H :    0.116708
  22 H :    0.103483
  23 H :    0.109267
  24 H :    0.118813
  25 H :    0.116362
  26 H :    0.112754
  27 H :    0.111752
  28 H :    0.109779
  29 H :    0.182732
  30 H :    0.216180
  31 H :    0.101348
  32 H :    0.111950
  33 H :    0.118409
  34 H :    0.121967
  35 H :    0.110440
  36 H :    0.109910
  37 H :    0.107172
  38 H :    0.116197
  39 H :    0.123193
  40 H :    0.115330
Sum of atomic charges:   -0.0000000

LOEWDIN ATOMIC CHARGES
----------------------
   0 C :   -0.365153
   1 C :   -0.116225
   2 O :   -0.246066
   3 P :    0.568748
   4 S :   -0.302554
   5 O :   -0.245070
   6 C :   -0.125823
   7 C :   -0.351163
   8 S :    0.070652
   9 C :   -0.477051
  10 S :    0.064493
  11 P :    0.560384
  12 S :   -0.291867
  13 O :   -0.229871
  14 C :   -0.115795
  15 C :   -0.358965
  16 O :   -0.249620
  17 C :   -0.119385
  18 C :   -0.350401
  19 H :    0.129156
  20 H :    0.122693
  21 H :    0.126264
  22 H :    0.118108
  23 H :    0.109827
  24 H :    0.108053
  25 H :    0.109893
  26 H :    0.124136
  27 H :    0.130701
  28 H :    0.123716
  29 H :    0.134996
  30 H :    0.124767
  31 H :    0.103912
  32 H :    0.120566
  33 H :    0.128100
  34 H :    0.125832
  35 H :    0.129886
  36 H :    0.112646
  37 H :    0.109167
  38 H :    0.125854
  39 H :    0.129862
  40 H :    0.132596

  Mayer bond orders larger than 0.100000
B(  0-C ,  1-C ) :   1.1633 B(  0-C , 19-H ) :   0.9383 B(  0-C , 20-H ) :   0.9358
B(  0-C , 21-H ) :   0.9462 B(  1-C ,  2-O ) :   0.9118 B(  1-C , 22-H ) :   0.9352
B(  1-C , 23-H ) :   0.9165 B(  2-O ,  3-P ) :   1.1319 B(  3-P ,  4-S ) :   1.6159
B(  3-P ,  5-O ) :   1.1138 B(  3-P ,  8-S ) :   0.9541 B(  4-S ,  8-S ) :   0.1191
B(  5-O ,  6-C ) :   0.8973 B(  6-C ,  7-C ) :   1.1529 B(  6-C , 24-H ) :   0.9126
B(  6-C , 25-H ) :   0.9213 B(  7-C , 26-H ) :   0.9512 B(  7-C , 27-H ) :   0.9431
B(  7-C , 28-H ) :   0.9500 B(  8-S ,  9-C ) :   0.9942 B(  9-C , 10-S ) :   1.0067
B(  9-C , 29-H ) :   0.9104 B(  9-C , 30-H ) :   0.8450 B( 10-S , 11-P ) :   0.9412
B( 10-S , 12-S ) :   0.1083 B( 11-P , 12-S ) :   1.6742 B( 11-P , 13-O ) :   1.1299
B( 11-P , 16-O ) :   1.0785 B( 13-O , 14-C ) :   0.8857 B( 14-C , 15-C ) :   1.1649
B( 14-C , 31-H ) :   0.9113 B( 14-C , 32-H ) :   0.9336 B( 15-C , 33-H ) :   0.9473
B( 15-C , 34-H ) :   0.9416 B( 15-C , 35-H ) :   0.9402 B( 16-O , 17-C ) :   0.9019
B( 17-C , 18-C ) :   1.1596 B( 17-C , 36-H ) :   0.9125 B( 17-C , 37-H ) :   0.9270
B( 18-C , 38-H ) :   0.9507 B( 18-C , 39-H ) :   0.9507 B( 18-C , 40-H ) :   0.9415

Dispersion correction           -0.063830966
FINAL SINGLE POINT ENERGY     -2929.522074756561

DIPOLE MOMENT
-------------

Method             : SCF
Type of density    : Electron Density
Multiplicity       :   1
Irrep              :   0
Energy             : -2929.6422827228070673 Eh
Relativity type    :
Basis              : AO
                                X                 Y                 Z
Electronic contribution:      4.022709248     -10.594878113     -11.502051869
Nuclear contribution   :     -4.742582481      10.137892120      12.487161199
                        -----------------------------------------
Total Dipole Moment    :     -0.719873233      -0.456985993       0.985109330
                        -----------------------------------------
Magnitude (a.u.)       :      1.302879143
Magnitude (Debye)      :      3.311655601

Rotational constants in cm-1:             0.013796             0.004523             0.004356
Rotational constants in MHz :           413.583386           135.599749           130.580019

                             ****ORCA TERMINATED NORMALLY****
TOTAL RUN TIME: 0 days 0 hours 0 minutes 20 seconds 656 msec
