                         Program Version 6.0.0  -   RELEASE  -
|  1> ! pbe def2-sv(p) def2/J RI DEFGRID1 loosescf d4 GCP(DFT/SV(P)) printgap
|  2> %output
|  3>     printlevel normal
|  4> end
|  5> * xyz 0 1
|  6> C 3.8980576549 -1.3703623058 -2.5214582387
|  7> C 4.2040054815 -1.5947883812 -1.055106378
|  8> O 3.006903112 -1.6469272203 -0.2591459733
|  9> P 2.1246831333 -0.354861911 0.0257658514
| 10> S 3.1566929482 1.2999344821 0.273457721
| 11> O 1.2002567357 -0.8628082677 1.2070067097
| 12> C 1.6646958827 -1.4875615735 2.4216358318
| 13> C 2.5295948734 -0.5645950832 3.2548793013
| 14> S 0.6890745318 -0.2916668375 -1.5244821015
| 15> C 0.161829494 1.4191497849 -1.261185074
| 16> S -0.6052268133 1.6857497518 0.3631933186
| 17> P -2.249260055 0.4014627948 0.072875659
| 18> S -3.0099125649 0.273433461 -1.7328716471
| 19> O -3.3054368316 0.8327677232 1.1840941583
| 20> C -4.3268713164 1.815225989 0.9375350395
| 21> C -3.7511321568 3.2074111662 0.777408325
| 22> O -1.6788433769 -0.9293842636 0.7140033003
| 23> C -2.3003600336 -2.2173779773 0.4987456103
| 24> C -1.532023825 -3.0058347094 -0.5434317311
| 25> H 3.4822263364 -0.3742731901 -2.6662334086
| 26> H 4.8139345493 -1.4567167798 -3.0971349264
| 27> H 3.1773314611 -2.1035307433 -2.8744615948
| 28> H 4.8415300666 -0.7932876937 -0.6682249922
| 29> H 4.6760280651 -2.5631778498 -0.8840659875
| 30> H 0.738904206 -1.7418182186 2.9413951287
| 31> H 2.2056675514 -2.3986404263 2.1550235631
| 32> H 2.7675762121 -1.0475817987 4.1974889648
| 33> H 3.4552002879 -0.3355482733 2.7289135885
| 34> H 2.005438656 0.3683998414 3.4499521449
| 35> H -0.5553832514 1.6443406444 -2.0495891163
| 36> H 1.0251439201 2.0828689214 -1.3027592913
| 37> H -4.8776368875 1.5212232333 0.038157327
| 38> H -4.9752877432 1.7439173035 1.8117521101
| 39> H -3.1148064903 3.4533055816 1.6239001409
| 40> H -3.1567049569 3.2619453458 -0.1337193661
| 41> H -4.5615080366 3.9263670324 0.712966077
| 42> H -2.2734403525 -2.7073446983 1.4734496944
| 43> H -3.3394913252 -2.0707352075 0.1903510264
| 44> H -1.5973260825 -2.512808257 -1.5112920905
| 45> H -0.484420426 -3.0744091046 -0.2610406204
| 46> H -1.9525889953 -4.0031954211 -0.621395141
| 47> *
| 48>
| 49>                          ****END OF INPUT****

CARTESIAN COORDINATES (ANGSTROEM)
---------------------------------
  C      3.898058   -1.370362   -2.521458
  C      4.204005   -1.594788   -1.055106
  O      3.006903   -1.646927   -0.259146
  P      2.124683   -0.354862    0.025766
  S      3.156693    1.299934    0.273458
  O      1.200257   -0.862808    1.207007
  C      1.664696   -1.487562    2.421636
  C      2.529595   -0.564595    3.254879
  S      0.689075   -0.291667   -1.524482
  C      0.161829    1.419150   -1.261185
  S     -0.605227    1.685750    0.363193
  P     -2.249260    0.401463    0.072876
  S     -3.009913    0.273433   -1.732872
  O     -3.305437    0.832768    1.184094
  C     -4.326871    1.815226    0.937535
  C     -3.751132    3.207411    0.777408
  O     -1.678843   -0.929384    0.714003
  C     -2.300360   -2.217378    0.498746
  C     -1.532024   -3.005835   -0.543432
  H      3.482226   -0.374273   -2.666233
  H      4.813935   -1.456717   -3.097135
  H      3.177331   -2.103531   -2.874462
  H      4.841530   -0.793288   -0.668225
  H      4.676028   -2.563178   -0.884066
  H      0.738904   -1.741818    2.941395
  H      2.205668   -2.398640    2.155024
  H      2.767576   -1.047582    4.197489
  H      3.455200   -0.335548    2.728914
  H      2.005439    0.368400    3.449952
  H     -0.555383    1.644341   -2.049589
  H      1.025144    2.082869   -1.302759
  H     -4.877637    1.521223    0.038157
  H     -4.975288    1.743917    1.811752
  H     -3.114806    3.453306    1.623900
  H     -3.156705    3.261945   -0.133719
  H     -4.561508    3.926367    0.712966
  H     -2.273440   -2.707345    1.473450
  H     -3.339491   -2.070735    0.190351
  H     -1.597326   -2.512808   -1.511292
  H     -0.484420   -3.074409   -0.261041
  H     -1.952589   -4.003195   -0.621395

 Total Charge           Charge          ....    0
 Multiplicity           Mult            ....    1
 Number of Electrons    NEL             ....  202
 Basis Dimension        Dim             ....  334

ORBITAL ENERGIES
----------------

  NO   OCC          E(Eh)            E(eV)
   0   2.0000     -88.040331     -2395.6992
   1   2.0000     -88.040029     -2395.6910
   2   2.0000     -87.987077     -2394.2501
   3   2.0000     -87.986761     -2394.2415
   4   2.0000     -76.426999     -2079.6844
   5   2.0000     -76.423572     -2079.5911
   6   2.0000     -18.798910      -511.5444
   7   2.0000     -18.790365      -511.3118
   8   2.0000     -18.785984      -511.1926
   9   2.0000     -18.783361      -511.1212
  10   2.0000      -9.954342      -270.8714
  11   2.0000      -9.953543      -270.8497
  12   2.0000      -9.952612      -270.8243
  13   2.0000      -9.949503      -270.7397
  14   2.0000      -9.949456      -270.7385
  15   2.0000      -9.884954      -268.9833
  16   2.0000      -9.881773      -268.8967
  17   2.0000      -9.880943      -268.8741
  18   2.0000      -9.876144      -268.7435
  19   2.0000      -7.685270      -209.1268
  20   2.0000      -7.685217      -209.1254
  21   2.0000      -7.632040      -207.6784
  22   2.0000      -7.631725      -207.6698
  23   2.0000      -6.424271      -174.8133
  24   2.0000      -6.421169      -174.7289
  25   2.0000      -5.713189      -155.4638
  26   2.0000      -5.713067      -155.4604
  27   2.0000      -5.709927      -155.3750
  28   2.0000      -5.709912      -155.3746
  29   2.0000      -5.702011      -155.1596
  30   2.0000      -5.701949      -155.1579
  31   2.0000      -5.660877      -154.0403
  32   2.0000      -5.660486      -154.0297
  33   2.0000      -5.652738      -153.8188
  34   2.0000      -5.652519      -153.8129
  35   2.0000      -5.652238      -153.8052
  36   2.0000      -5.651893      -153.7958
  37   2.0000      -4.647226      -126.4574
  38   2.0000      -4.645774      -126.4179
  39   2.0000      -4.644672      -126.3879
  40   2.0000      -4.643593      -126.3586
  41   2.0000      -4.642871      -126.3389
  42   2.0000      -4.641833      -126.3107
  43   2.0000      -0.988659       -26.9028
  44   2.0000      -0.982296       -26.7296
  45   2.0000      -0.944465       -25.7002
  46   2.0000      -0.940062       -25.5804
  47   2.0000      -0.764726       -20.8092
  48   2.0000      -0.720024       -19.5928
  49   2.0000      -0.705876       -19.2079
  50   2.0000      -0.688361       -18.7313
  51   2.0000      -0.682509       -18.5720
  52   2.0000      -0.672481       -18.2992
  53   2.0000      -0.650782       -17.7087
  54   2.0000      -0.637737       -17.3537
  55   2.0000      -0.600180       -16.3317
  56   2.0000      -0.590511       -16.0686
  57   2.0000      -0.577877       -15.7248
  58   2.0000      -0.570289       -15.5183
  59   2.0000      -0.554902       -15.0997
  60   2.0000      -0.498641       -13.5687
  61   2.0000      -0.496366       -13.5068
  62   2.0000      -0.471307       -12.8249
  63   2.0000      -0.466603       -12.6969
  64   2.0000      -0.458592       -12.4789
  65   2.0000      -0.442210       -12.0331
  66   2.0000      -0.436597       -11.8804
  67   2.0000      -0.432425       -11.7669
  68   2.0000      -0.425062       -11.5665
  69   2.0000      -0.414861       -11.2889
  70   2.0000      -0.409579       -11.1452
  71   2.0000      -0.406669       -11.0660
  72   2.0000      -0.392206       -10.6725
  73   2.0000      -0.378391       -10.2966
  74   2.0000      -0.376466       -10.2442
  75   2.0000      -0.373316       -10.1584
  76   2.0000      -0.368333       -10.0229
  77   2.0000      -0.357656        -9.7323
  78   2.0000      -0.351071        -9.5531
  79   2.0000      -0.348104        -9.4724
  80   2.0000      -0.346714        -9.4346
  81   2.0000      -0.342755        -9.3268
  82   2.0000      -0.339473        -9.2375
  83   2.0000      -0.336795        -9.1647
  84   2.0000      -0.333151        -9.0655
  85   2.0000      -0.321708        -8.7541
  86   2.0000      -0.302828        -8.2404
  87   2.0000      -0.297236        -8.0882
  88   2.0000      -0.294298        -8.0083
  89   2.0000      -0.290164        -7.8958
  90   2.0000      -0.279459        -7.6045
  91   2.0000      -0.275636        -7.5004
  92   2.0000      -0.269829        -7.3424
  93   2.0000      -0.261313        -7.1107
  94   2.0000      -0.261219        -7.1081
  95   2.0000      -0.231915        -6.3107
  96   2.0000      -0.215100        -5.8532
  97   2.0000      -0.212610        -5.7854
  98   2.0000      -0.203969        -5.5503
  99   2.0000      -0.200490        -5.4556
 100   2.0000      -0.196451        -5.3457
 101   0.0000      -0.044778        -1.2185
 102   0.0000      -0.024205        -0.6586
 103   0.0000      -0.001017        -0.0277
 104   0.0000       0.001960         0.0533
 105   0.0000       0.011440         0.3113

MULLIKEN ATOMIC CHARGES
-----------------------
   0 C :   -0.313775
   1 C :   -0.006377
   2 O :   -0.383187
   3 P :    0.631108
   4 S :   -0.335405
   5 O :   -0.354299
   6 C :   -0.001227
   7 C :   -0.312534
   8 S :   -0.070302
   9 C :   -0.365121
  10 S :   -0.064087
  11 P :    0.610616
  12 S :   -0.344405
  13 O :   -0.373526
  14 C :   -0.004042
  15 C :   -0.313590
  16 O :   -0.354338
  17 C :   -0.002110
  18 C :   -0.288484
  19 H :    0.127525
  20 H :    0.113850
  21 H :    0.117822
  22 H :    0.112265
  23 H :    0.103821
  24 H :    0.106303
  25 H :    0.104775
  26 H :    0.107451
  27 H :    0.125854
  28 H :    0.126350
  29 H :    0.191060
  30 H :    0.191455
  31 H :    0.110536
  32 H :    0.103730
  33 H :    0.118033
  34 H :    0.124614
  35 H :    0.112010
  36 H :    0.101835
  37 H :    0.101403
  38 H :    0.128114
  39 H :    0.113268
  40 H :    0.103011
Sum of atomic charges:    0.0000000

LOEWDIN ATOMIC CHARGES
----------------------
   0 C :   -0.368472
   1 C :   -0.120695
   2 O :   -0.246640
   3 P :    0.572798
   4 S :   -0.321607
   5 O :   -0.233389
   6 C :   -0.109477
   7 C :   -0.367221
   8 S :    0.105625
   9 C :   -0.482034
  10 S :    0.103325
  11 P :    0.571658
  12 S :   -0.330683
  13 O :   -0.248960
  14 C :   -0.120484
  15 C :   -0.368855
  16 O :   -0.236539
  17 C :   -0.111079
  18 C :   -0.361592
  19 H :    0.121686
  20 H :    0.131616
  21 H :    0.125049
  22 H :    0.110352
  23 H :    0.117706
  24 H :    0.119734
  25 H :    0.110556
  26 H :    0.127860
  27 H :    0.120787
  28 H :    0.131135
  29 H :    0.130715
  30 H :    0.129572
  31 H :    0.109481
  32 H :    0.117945
  33 H :    0.124703
  34 H :    0.120357
  35 H :    0.130465
  36 H :    0.115769
  37 H :    0.108060
  38 H :    0.124165
  39 H :    0.121267
  40 H :    0.125340

  Mayer bond orders larger than 0.100000
B(  0-C ,  1-C ) :   1.1663 B(  0-C , 19-H ) :   0.9347 B(  0-C , 20-H ) :   0.9380
B(  0-C , 21-H ) :   0.9455 B(  1-C ,  2-O ) :   0.9067 B(  1-C , 22-H ) :   0.9132
B(  1-C , 23-H ) :   0.9330 B(  2-O ,  3-P ) :   1.0881 B(  3-P ,  4-S ) :   1.5999
B(  3-P ,  5-O ) :   1.1261 B(  3-P ,  8-S ) :   0.9527 B(  4-S ,  8-S ) :   0.1137
B(  5-O ,  6-C ) :   0.9114 B(  6-C ,  7-C ) :   1.1669 B(  6-C , 24-H ) :   0.9331
B(  6-C , 25-H ) :   0.9299 B(  7-C , 26-H ) :   0.9364 B(  7-C , 27-H ) :   0.9365
B(  7-C , 28-H ) :   0.9453 B(  8-S ,  9-C ) :   1.0094 B(  9-C , 10-S ) :   1.0056
B(  9-C , 29-H ) :   0.8846 B(  9-C , 30-H ) :   0.8809 B( 10-S , 11-P ) :   0.9659
B( 10-S , 12-S ) :   0.1101 B( 11-P , 12-S ) :   1.5774 B( 11-P , 13-O ) :   1.1092
B( 11-P , 16-O ) :   1.1403 B( 13-O , 14-C ) :   0.9116 B( 14-C , 15-C ) :   1.1647
B( 14-C , 31-H ) :   0.9145 B( 14-C , 32-H ) :   0.9339 B( 15-C , 33-H ) :   0.9451
B( 15-C , 34-H ) :   0.9357 B( 15-C , 35-H ) :   0.9382 B( 16-O , 17-C ) :   0.8967
B( 17-C , 18-C ) :   1.1718 B( 17-C , 36-H ) :   0.9337 B( 17-C , 37-H ) :   0.9139
B( 18-C , 38-H ) :   0.9372 B( 18-C , 39-H ) :   0.9446 B( 18-C , 40-H ) :   0.9396

Dispersion correction           -0.067186490
FINAL SINGLE POINT ENERGY     -2929.522928592939

DIPOLE MOMENT
-------------

Method             : SCF
Type of density    : Electron Density
Multiplicity       :   1
Irrep              :   0
Energy             : -2929.6402669901917761 Eh
Relativity type    :
Basis              : AO
                                X                 Y                 Z
Electronic contribution:     -2.180332780       7.852541358      -4.324722148
Nuclear contribution   :      2.251282765      -8.779211869       4.958497530
                        -----------------------------------------
Total Dipole Moment    :      0.070949985      -0.926670511       0.633775383
                        -----------------------------------------
Magnitude (a.u.)       :      1.124910384
Magnitude (Debye)      :      2.859294964

Rotational constants in cm-1:             0.012684             0.005129             0.004977
Rotational constants in MHz :           380.263944           153.754231           149.219333

                             ****ORCA TERMINATED NORMALLY****
TOTAL RUN TIME: 0 days 0 hours 0 minutes 22 seconds 89 msec
