                         Program Version 6.0.1  -  RELEASE   -
|  1> ! pbe def2-sv(p) def2/J RI DEFGRID1 loosescf d4 GCP(DFT/SV(P)) printgap
|  2> %output
|  3>     printlevel normal
|  4> end
|  5> * xyz 0 1
|  6> C 3.4451528601 -1.4838963425 1.8381481082
|  7> C 2.7764350121 -2.2702667929 0.7226971576
|  8> O 2.628487244 -1.4591721467 -0.4626092206
|  9> C 1.624060314 -0.6344558632 -0.5467841568
| 10> O 0.7812293235 -0.4741377933 0.3303281459
| 11> C 1.5704954698 0.1415665066 -1.834869665
| 12> C 0.4162382891 1.1271789811 -1.734308167
| 13> H 0.3877140946 1.7910980804 -2.6018942523
| 14> C 0.4922305147 1.9744900506 -0.4718190383
| 15> O -0.4722057265 2.3560373764 0.1476838074
| 16> O 1.7443645573 2.2577742662 -0.1675028405
| 17> C 1.9942679022 3.1183431069 0.9627208151
| 18> C 1.938250215 4.5806620652 0.5528720055
| 19> S -1.222243622 0.3077687495 -1.8042349527
| 20> P -1.6025000418 -0.7870068876 -0.0361787498
| 21> S -1.0530966338 -2.6598583636 0.2591274315
| 22> O -1.7172375897 0.0858067224 1.2972489757
| 23> C -0.9064371041 -0.0398445585 2.4585031944
| 24> O -3.152076868 -0.7539653958 -0.4807381422
| 25> C -4.1518188645 -1.5178587369 0.1934874349
| 26> H 4.4038808983 -1.0992780734 1.5017734981
| 27> H 2.8129443692 -0.6526640531 2.1430238455
| 28> H 3.5990037146 -2.1368269073 2.6906454012
| 29> H 1.7894451793 -2.6306572329 1.0264322435
| 30> H 3.3943772979 -3.1058545378 0.3958246192
| 31> H 1.4180584602 -0.5458015805 -2.6682701944
| 32> H 2.519051639 0.6605033221 -1.9798407147
| 33> H 1.2531104772 2.9039656472 1.7381599637
| 34> H 2.9916573728 2.8369555108 1.3013663657
| 35> H 0.9346313125 4.8381787903 0.2221104555
| 36> H 2.1976385777 5.2002628091 1.4048806266
| 37> H 2.63880831 4.769576789 -0.2554661075
| 38> H -1.5509736882 0.2074618323 3.2992639572
| 39> H -0.0730515184 0.6580548742 2.3969252563
| 40> H -0.5296604445 -1.0605993811 2.5465370426
| 41> H -3.7805029011 -2.5245587303 0.4015111316
| 42> H -4.9999456395 -1.5605799765 -0.485439787
| 43> H -4.4304063228 -1.0263695146 1.1254993045
| 44> *
| 45>
| 46>                          ****END OF INPUT****

CARTESIAN COORDINATES (ANGSTROEM)
---------------------------------
  C      3.445153   -1.483896    1.838148
  C      2.776435   -2.270267    0.722697
  O      2.628487   -1.459172   -0.462609
  C      1.624060   -0.634456   -0.546784
  O      0.781229   -0.474138    0.330328
  C      1.570495    0.141567   -1.834870
  C      0.416238    1.127179   -1.734308
  H      0.387714    1.791098   -2.601894
  C      0.492231    1.974490   -0.471819
  O     -0.472206    2.356037    0.147684
  O      1.744365    2.257774   -0.167503
  C      1.994268    3.118343    0.962721
  C      1.938250    4.580662    0.552872
  S     -1.222244    0.307769   -1.804235
  P     -1.602500   -0.787007   -0.036179
  S     -1.053097   -2.659858    0.259127
  O     -1.717238    0.085807    1.297249
  C     -0.906437   -0.039845    2.458503
  O     -3.152077   -0.753965   -0.480738
  C     -4.151819   -1.517859    0.193487
  H      4.403881   -1.099278    1.501773
  H      2.812944   -0.652664    2.143024
  H      3.599004   -2.136827    2.690645
  H      1.789445   -2.630657    1.026432
  H      3.394377   -3.105855    0.395825
  H      1.418058   -0.545802   -2.668270
  H      2.519052    0.660503   -1.979841
  H      1.253110    2.903966    1.738160
  H      2.991657    2.836956    1.301366
  H      0.934631    4.838179    0.222110
  H      2.197639    5.200263    1.404881
  H      2.638808    4.769577   -0.255466
  H     -1.550974    0.207462    3.299264
  H     -0.073052    0.658055    2.396925
  H     -0.529660   -1.060599    2.546537
  H     -3.780503   -2.524559    0.401511
  H     -4.999946   -1.560580   -0.485440
  H     -4.430406   -1.026370    1.125499

 Total Charge           Charge          ....    0
 Multiplicity           Mult            ....    1
 Number of Electrons    NEL             ....  174
 Basis Dimension        Dim             ....  316

ORBITAL ENERGIES
----------------

  NO   OCC          E(Eh)            E(eV)
   0   2.0000     -88.027832     -2395.3591
   1   2.0000     -87.960420     -2393.5247
   2   2.0000     -76.412018     -2079.2767
   3   2.0000     -18.821183      -512.1504
   4   2.0000     -18.812029      -511.9013
   5   2.0000     -18.773634      -510.8565
   6   2.0000     -18.765424      -510.6332
   7   2.0000     -18.761640      -510.5302
   8   2.0000     -18.740265      -509.9485
   9   2.0000     -10.031112      -272.9604
  10   2.0000     -10.018322      -272.6124
  11   2.0000      -9.958011      -270.9713
  12   2.0000      -9.954008      -270.8623
  13   2.0000      -9.949775      -270.7472
  14   2.0000      -9.927532      -270.1419
  15   2.0000      -9.921953      -269.9901
  16   2.0000      -9.920758      -269.9575
  17   2.0000      -9.895607      -269.2731
  18   2.0000      -9.894785      -269.2508
  19   2.0000      -7.672516      -208.7798
  20   2.0000      -7.605617      -206.9593
  21   2.0000      -6.407477      -174.3563
  22   2.0000      -5.701303      -155.1403
  23   2.0000      -5.696850      -155.0192
  24   2.0000      -5.688742      -154.7985
  25   2.0000      -5.634750      -153.3293
  26   2.0000      -5.626137      -153.0950
  27   2.0000      -5.625593      -153.0802
  28   2.0000      -4.630447      -126.0009
  29   2.0000      -4.629488      -125.9748
  30   2.0000      -4.627834      -125.9298
  31   2.0000      -1.032102       -28.0849
  32   2.0000      -1.018787       -27.7226
  33   2.0000      -0.961639       -26.1675
  34   2.0000      -0.939012       -25.5518
  35   2.0000      -0.921620       -25.0786
  36   2.0000      -0.917525       -24.9671
  37   2.0000      -0.765966       -20.8430
  38   2.0000      -0.720326       -19.6011
  39   2.0000      -0.709773       -19.3139
  40   2.0000      -0.687506       -18.7080
  41   2.0000      -0.652548       -17.7567
  42   2.0000      -0.625007       -17.0073
  43   2.0000      -0.612457       -16.6658
  44   2.0000      -0.609384       -16.5822
  45   2.0000      -0.603074       -16.4105
  46   2.0000      -0.567733       -15.4488
  47   2.0000      -0.514581       -14.0025
  48   2.0000      -0.509360       -13.8604
  49   2.0000      -0.492623       -13.4050
  50   2.0000      -0.489459       -13.3189
  51   2.0000      -0.470650       -12.8070
  52   2.0000      -0.460554       -12.5323
  53   2.0000      -0.449604       -12.2344
  54   2.0000      -0.442770       -12.0484
  55   2.0000      -0.430772       -11.7219
  56   2.0000      -0.429054       -11.6752
  57   2.0000      -0.416599       -11.3362
  58   2.0000      -0.407090       -11.0775
  59   2.0000      -0.400073       -10.8866
  60   2.0000      -0.399606       -10.8738
  61   2.0000      -0.392491       -10.6802
  62   2.0000      -0.389285       -10.5930
  63   2.0000      -0.387766       -10.5516
  64   2.0000      -0.382270       -10.4021
  65   2.0000      -0.374055       -10.1786
  66   2.0000      -0.365260        -9.9392
  67   2.0000      -0.359472        -9.7817
  68   2.0000      -0.345052        -9.3894
  69   2.0000      -0.343866        -9.3571
  70   2.0000      -0.337152        -9.1744
  71   2.0000      -0.335300        -9.1240
  72   2.0000      -0.326465        -8.8836
  73   2.0000      -0.306851        -8.3498
  74   2.0000      -0.305245        -8.3061
  75   2.0000      -0.299995        -8.1633
  76   2.0000      -0.284840        -7.7509
  77   2.0000      -0.278550        -7.5797
  78   2.0000      -0.267206        -7.2711
  79   2.0000      -0.263920        -7.1816
  80   2.0000      -0.253157        -6.8888
  81   2.0000      -0.249864        -6.7992
  82   2.0000      -0.242587        -6.6011
  83   2.0000      -0.225643        -6.1401
  84   2.0000      -0.208615        -5.6767
  85   2.0000      -0.178395        -4.8544
  86   2.0000      -0.174393        -4.7455
  87   0.0000      -0.056422        -1.5353
  88   0.0000      -0.030594        -0.8325
  89   0.0000      -0.022240        -0.6052
  90   0.0000       0.003820         0.1040
  91   0.0000       0.023246         0.6326

MULLIKEN ATOMIC CHARGES
-----------------------
   0 C :   -0.316349
   1 C :   -0.025160
   2 O :   -0.207556
   3 C :    0.153999
   4 O :   -0.241672
   5 C :   -0.045782
   6 C :   -0.323135
   7 H :    0.146714
   8 C :    0.194142
   9 O :   -0.170114
  10 O :   -0.246761
  11 C :   -0.025957
  12 C :   -0.301705
  13 S :   -0.055758
  14 P :    0.671618
  15 S :   -0.371813
  16 O :   -0.371637
  17 C :   -0.098243
  18 O :   -0.400641
  19 C :   -0.094811
  20 H :    0.113121
  21 H :    0.126413
  22 H :    0.119608
  23 H :    0.139119
  24 H :    0.108294
  25 H :    0.136566
  26 H :    0.125218
  27 H :    0.123564
  28 H :    0.102176
  29 H :    0.131460
  30 H :    0.115584
  31 H :    0.113394
  32 H :    0.113020
  33 H :    0.120413
  34 H :    0.109547
  35 H :    0.111071
  36 H :    0.116306
  37 H :    0.105748
Sum of atomic charges:    0.0000000

LOEWDIN ATOMIC CHARGES
----------------------
   0 C :   -0.357148
   1 C :   -0.110025
   2 O :   -0.029448
   3 C :    0.055082
   4 O :   -0.166221
   5 C :   -0.254199
   6 C :   -0.268547
   7 H :    0.152424
   8 C :    0.007855
   9 O :   -0.147323
  10 O :   -0.063453
  11 C :   -0.109967
  12 C :   -0.355367
  13 S :    0.138229
  14 P :    0.591023
  15 S :   -0.358003
  16 O :   -0.234896
  17 C :   -0.215073
  18 O :   -0.272201
  19 C :   -0.217645
  20 H :    0.124203
  21 H :    0.127192
  22 H :    0.134388
  23 H :    0.124235
  24 H :    0.121854
  25 H :    0.150804
  26 H :    0.147971
  27 H :    0.121826
  28 H :    0.117130
  29 H :    0.132845
  30 H :    0.132327
  31 H :    0.124761
  32 H :    0.115361
  33 H :    0.105141
  34 H :    0.103972
  35 H :    0.104164
  36 H :    0.117924
  37 H :    0.108807

  Mayer bond orders larger than 0.100000
B(  0-C ,  1-C ) :   1.1679 B(  0-C , 20-H ) :   0.9471 B(  0-C , 21-H ) :   0.9444
B(  0-C , 22-H ) :   0.9434 B(  1-C ,  2-O ) :   0.8944 B(  1-C , 23-H ) :   0.9036
B(  1-C , 24-H ) :   0.9375 B(  2-O ,  3-C ) :   1.3075 B(  3-C ,  4-O ) :   1.8051
B(  3-C ,  5-C ) :   1.0195 B(  4-O , 14-P ) :   0.1295 B(  5-C ,  6-C ) :   1.0267
B(  5-C , 25-H ) :   0.8788 B(  5-C , 26-H ) :   0.8701 B(  6-C ,  7-H ) :   0.8643
B(  6-C ,  8-C ) :   0.8757 B(  6-C , 13-S ) :   1.0493 B(  8-C ,  9-O ) :   2.0908
B(  8-C , 10-O ) :   1.2146 B( 10-O , 11-C ) :   0.9109 B( 11-C , 12-C ) :   1.1761
B( 11-C , 27-H ) :   0.9087 B( 11-C , 28-H ) :   0.9365 B( 12-C , 29-H ) :   0.9450
B( 12-C , 30-H ) :   0.9435 B( 12-C , 31-H ) :   0.9483 B( 13-S , 14-P ) :   0.9525
B( 13-S , 15-S ) :   0.1018 B( 14-P , 15-S ) :   1.5441 B( 14-P , 16-O ) :   1.0912
B( 14-P , 18-O ) :   1.0510 B( 16-O , 17-C ) :   0.9427 B( 17-C , 32-H ) :   0.9532
B( 17-C , 33-H ) :   0.9421 B( 17-C , 34-H ) :   0.9300 B( 18-O , 19-C ) :   0.9438
B( 19-C , 35-H ) :   0.9266 B( 19-C , 36-H ) :   0.9606 B( 19-C , 37-H ) :   0.9525

Dispersion correction           -0.054851520
FINAL SINGLE POINT ENERGY     -1979.000717354747

DIPOLE MOMENT
-------------

Method             : SCF
Type of density    : Electron Density
Multiplicity       :   1
Irrep              :   0
Energy             : -1979.1318255812211646 Eh
Relativity type    :
Basis              : AO
                                X                 Y                 Z
Electronic contribution:    -13.561138068      -7.014933974     -12.854461517
Nuclear contribution   :     15.544785005       7.858827654      13.411782206
                        -----------------------------------------
Total Dipole Moment    :      1.983646937       0.843893680       0.557320689
                        -----------------------------------------
Magnitude (a.u.)       :      2.226570921
Magnitude (Debye)      :      5.659493514

Rotational constants in cm-1:             0.012525             0.008704             0.006830
Rotational constants in MHz :           375.499653           260.924418           204.759066

                             ****ORCA TERMINATED NORMALLY****
TOTAL RUN TIME: 0 days 0 hours 0 minutes 32 seconds 295 msec
