                         Program Version 6.0.0  -   RELEASE  -
|  1> ! pbe def2-sv(p) def2/J RI DEFGRID1 loosescf d4 GCP(DFT/SV(P)) printgap
|  2> %output
|  3>     printlevel normal
|  4> end
|  5> * xyz 0 1
|  6> C 2.5033702447 2.0104982765 -1.676550919
|  7> C 3.3029819986 1.9701444592 -0.3895015872
|  8> O 3.3637115732 0.6455909407 0.1666167845
|  9> P 2.1274829751 -0.0098792783 0.9228817065
| 10> S 1.1650055737 1.2006187138 2.1148363182
| 11> O 2.765685106 -1.2143079948 1.7159275503
| 12> C 3.6614269143 -2.1926381813 1.1293636468
| 13> C 5.1073523202 -1.789073349 1.3315761283
| 14> S 1.0688916355 -0.9522609301 -0.681769304
| 15> C -0.13788498 -1.8812580034 0.2989640454
| 16> S -1.4812535975 -0.8697227172 0.9839809123
| 17> P -2.1019766089 0.0106132124 -0.8613009189
| 18> S -1.9359712232 -1.1011280175 -2.4578440637
| 19> O -1.2793578432 1.3553268904 -0.9666174435
| 20> C -1.422562899 2.4425880878 -0.0185357968
| 21> C -2.3342629335 3.5154633052 -0.5741653336
| 22> O -3.5677626508 0.5330583105 -0.5367780723
| 23> C -4.7378093776 -0.2830724919 -0.729609744
| 24> C -4.7772605675 -1.4710800307 0.2092194929
| 25> H 1.4543063079 1.7875996476 -1.4849111769
| 26> H 2.5764358824 3.0012855189 -2.1135423591
| 27> H 2.8858399021 1.2771254808 -2.3821402243
| 28> H 2.8717954623 2.6408723268 0.3610824364
| 29> H 4.3476572507 2.2324905105 -0.5629247226
| 30> H 3.4324654912 -3.1198610495 1.6581138174
| 31> H 3.4245731575 -2.2999542285 0.0673379176
| 32> H 5.3219257005 -0.8696713884 0.7940701097
| 33> H 5.3055434116 -1.632384318 2.388377841
| 34> H 5.7506800694 -2.5802914663 0.9593714215
| 35> H 0.3504728321 -2.3560323216 1.1474047751
| 36> H -0.5592267974 -2.619021421 -0.382768082
| 37> H -1.7967989587 2.0457929124 0.9291307893
| 38> H -0.4089992249 2.8190265538 0.1354372512
| 39> H -2.3577290967 4.3498108686 0.119692412
| 40> H -1.9619553662 3.856253372 -1.5363238507
| 41> H -3.3404238727 3.1258875345 -0.7031779708
| 42> H -5.5655081313 0.4029838399 -0.5441691228
| 43> H -4.7546751368 -0.6164349261 -1.7716918128
| 44> H -5.7368816947 -1.9690253565 0.1146995931
| 45> H -3.9879446736 -2.175574573 -0.0482275018
| 46> H -4.6374260553 -1.1473993894 1.2378099657
| 47> *
| 48>
| 49>                          ****END OF INPUT****

CARTESIAN COORDINATES (ANGSTROEM)
---------------------------------
  C      2.503370    2.010498   -1.676551
  C      3.302982    1.970144   -0.389502
  O      3.363712    0.645591    0.166617
  P      2.127483   -0.009879    0.922882
  S      1.165006    1.200619    2.114836
  O      2.765685   -1.214308    1.715928
  C      3.661427   -2.192638    1.129364
  C      5.107352   -1.789073    1.331576
  S      1.068892   -0.952261   -0.681769
  C     -0.137885   -1.881258    0.298964
  S     -1.481254   -0.869723    0.983981
  P     -2.101977    0.010613   -0.861301
  S     -1.935971   -1.101128   -2.457844
  O     -1.279358    1.355327   -0.966617
  C     -1.422563    2.442588   -0.018536
  C     -2.334263    3.515463   -0.574165
  O     -3.567763    0.533058   -0.536778
  C     -4.737809   -0.283072   -0.729610
  C     -4.777261   -1.471080    0.209219
  H      1.454306    1.787600   -1.484911
  H      2.576436    3.001286   -2.113542
  H      2.885840    1.277125   -2.382140
  H      2.871795    2.640872    0.361082
  H      4.347657    2.232491   -0.562925
  H      3.432465   -3.119861    1.658114
  H      3.424573   -2.299954    0.067338
  H      5.321926   -0.869671    0.794070
  H      5.305543   -1.632384    2.388378
  H      5.750680   -2.580291    0.959371
  H      0.350473   -2.356032    1.147405
  H     -0.559227   -2.619021   -0.382768
  H     -1.796799    2.045793    0.929131
  H     -0.408999    2.819027    0.135437
  H     -2.357729    4.349811    0.119692
  H     -1.961955    3.856253   -1.536324
  H     -3.340424    3.125888   -0.703178
  H     -5.565508    0.402984   -0.544169
  H     -4.754675   -0.616435   -1.771692
  H     -5.736882   -1.969025    0.114700
  H     -3.987945   -2.175575   -0.048228
  H     -4.637426   -1.147399    1.237810

 Total Charge           Charge          ....    0
 Multiplicity           Mult            ....    1
 Number of Electrons    NEL             ....  202
 Basis Dimension        Dim             ....  334

ORBITAL ENERGIES
----------------

  NO   OCC          E(Eh)            E(eV)
   0   2.0000     -88.041402     -2395.7283
   1   2.0000     -88.036254     -2395.5883
   2   2.0000     -87.985103     -2394.1964
   3   2.0000     -87.983328     -2394.1481
   4   2.0000     -76.425154     -2079.6342
   5   2.0000     -76.424789     -2079.6242
   6   2.0000     -18.795721      -511.4576
   7   2.0000     -18.794742      -511.4309
   8   2.0000     -18.794181      -511.4157
   9   2.0000     -18.786565      -511.2084
  10   2.0000      -9.958054      -270.9724
  11   2.0000      -9.957050      -270.9451
  12   2.0000      -9.953758      -270.8555
  13   2.0000      -9.953717      -270.8544
  14   2.0000      -9.945489      -270.6305
  15   2.0000      -9.887533      -269.0534
  16   2.0000      -9.883917      -268.9551
  17   2.0000      -9.883656      -268.9480
  18   2.0000      -9.880111      -268.8515
  19   2.0000      -7.685546      -209.1344
  20   2.0000      -7.681206      -209.0162
  21   2.0000      -7.630390      -207.6335
  22   2.0000      -7.628482      -207.5816
  23   2.0000      -6.422858      -174.7749
  24   2.0000      -6.422030      -174.7523
  25   2.0000      -5.713343      -155.4680
  26   2.0000      -5.710114      -155.3801
  27   2.0000      -5.709076      -155.3518
  28   2.0000      -5.705867      -155.2645
  29   2.0000      -5.702656      -155.1772
  30   2.0000      -5.698029      -155.0512
  31   2.0000      -5.659363      -153.9991
  32   2.0000      -5.657453      -153.9471
  33   2.0000      -5.650898      -153.7688
  34   2.0000      -5.650581      -153.7601
  35   2.0000      -5.649102      -153.7199
  36   2.0000      -5.648544      -153.7047
  37   2.0000      -4.645999      -126.4241
  38   2.0000      -4.644989      -126.3966
  39   2.0000      -4.644610      -126.3863
  40   2.0000      -4.643675      -126.3608
  41   2.0000      -4.642778      -126.3364
  42   2.0000      -4.642321      -126.3240
  43   2.0000      -0.990160       -26.9436
  44   2.0000      -0.986512       -26.8444
  45   2.0000      -0.948770       -25.8173
  46   2.0000      -0.942270       -25.6405
  47   2.0000      -0.761141       -20.7117
  48   2.0000      -0.719289       -19.5729
  49   2.0000      -0.708564       -19.2810
  50   2.0000      -0.691595       -18.8192
  51   2.0000      -0.687994       -18.7213
  52   2.0000      -0.671596       -18.2750
  53   2.0000      -0.649763       -17.6809
  54   2.0000      -0.638904       -17.3855
  55   2.0000      -0.596525       -16.2323
  56   2.0000      -0.590065       -16.0565
  57   2.0000      -0.578100       -15.7309
  58   2.0000      -0.569419       -15.4947
  59   2.0000      -0.560256       -15.2453
  60   2.0000      -0.504401       -13.7255
  61   2.0000      -0.496296       -13.5049
  62   2.0000      -0.478712       -13.0264
  63   2.0000      -0.472115       -12.8469
  64   2.0000      -0.457554       -12.4507
  65   2.0000      -0.449368       -12.2279
  66   2.0000      -0.444686       -12.1005
  67   2.0000      -0.430815       -11.7231
  68   2.0000      -0.423356       -11.5201
  69   2.0000      -0.420393       -11.4395
  70   2.0000      -0.411776       -11.2050
  71   2.0000      -0.395285       -10.7563
  72   2.0000      -0.389675       -10.6036
  73   2.0000      -0.380453       -10.3527
  74   2.0000      -0.378499       -10.2995
  75   2.0000      -0.373311       -10.1583
  76   2.0000      -0.364035        -9.9059
  77   2.0000      -0.360923        -9.8212
  78   2.0000      -0.355052        -9.6615
  79   2.0000      -0.352993        -9.6054
  80   2.0000      -0.350887        -9.5481
  81   2.0000      -0.348766        -9.4904
  82   2.0000      -0.342082        -9.3085
  83   2.0000      -0.338654        -9.2152
  84   2.0000      -0.332411        -9.0454
  85   2.0000      -0.319111        -8.6834
  86   2.0000      -0.313671        -8.5354
  87   2.0000      -0.298474        -8.1219
  88   2.0000      -0.294941        -8.0258
  89   2.0000      -0.292512        -7.9597
  90   2.0000      -0.291027        -7.9193
  91   2.0000      -0.272949        -7.4273
  92   2.0000      -0.268689        -7.3114
  93   2.0000      -0.262322        -7.1381
  94   2.0000      -0.257371        -7.0034
  95   2.0000      -0.237935        -6.4745
  96   2.0000      -0.216249        -5.8844
  97   2.0000      -0.208224        -5.6661
  98   2.0000      -0.204012        -5.5515
  99   2.0000      -0.198260        -5.3949
 100   2.0000      -0.187464        -5.1011
 101   0.0000      -0.042231        -1.1492
 102   0.0000      -0.025113        -0.6834
 103   0.0000      -0.004048        -0.1102
 104   0.0000       0.001276         0.0347
 105   0.0000       0.015914         0.4330

MULLIKEN ATOMIC CHARGES
-----------------------
   0 C :   -0.347403
   1 C :   -0.005109
   2 O :   -0.381822
   3 P :    0.596520
   4 S :   -0.306346
   5 O :   -0.364029
   6 C :   -0.015155
   7 C :   -0.289789
   8 S :   -0.080588
   9 C :   -0.345320
  10 S :   -0.076833
  11 P :    0.600647
  12 S :   -0.319160
  13 O :   -0.353339
  14 C :   -0.018202
  15 C :   -0.281315
  16 O :   -0.382100
  17 C :    0.000278
  18 C :   -0.316352
  19 H :    0.162404
  20 H :    0.113669
  21 H :    0.119302
  22 H :    0.110420
  23 H :    0.104479
  24 H :    0.107124
  25 H :    0.104081
  26 H :    0.124537
  27 H :    0.120259
  28 H :    0.109962
  29 H :    0.180454
  30 H :    0.191201
  31 H :    0.109146
  32 H :    0.112989
  33 H :    0.108858
  34 H :    0.114010
  35 H :    0.116349
  36 H :    0.104636
  37 H :    0.112969
  38 H :    0.112976
  39 H :    0.126117
  40 H :    0.119473
Sum of atomic charges:   -0.0000000

LOEWDIN ATOMIC CHARGES
----------------------
   0 C :   -0.373469
   1 C :   -0.119939
   2 O :   -0.247022
   3 P :    0.563273
   4 S :   -0.301961
   5 O :   -0.240424
   6 C :   -0.117249
   7 C :   -0.359074
   8 S :    0.092613
   9 C :   -0.479123
  10 S :    0.079273
  11 P :    0.572314
  12 S :   -0.316611
  13 O :   -0.234762
  14 C :   -0.117912
  15 C :   -0.358763
  16 O :   -0.246847
  17 C :   -0.116398
  18 C :   -0.371018
  19 H :    0.127836
  20 H :    0.131964
  21 H :    0.126723
  22 H :    0.108689
  23 H :    0.117987
  24 H :    0.119093
  25 H :    0.104581
  26 H :    0.127104
  27 H :    0.128924
  28 H :    0.129874
  29 H :    0.132230
  30 H :    0.132544
  31 H :    0.107410
  32 H :    0.111789
  33 H :    0.129258
  34 H :    0.126226
  35 H :    0.123925
  36 H :    0.118220
  37 H :    0.112758
  38 H :    0.131012
  39 H :    0.120723
  40 H :    0.124229

  Mayer bond orders larger than 0.100000
B(  0-C ,  1-C ) :   1.1639 B(  0-C , 19-H ) :   0.9229 B(  0-C , 20-H ) :   0.9382
B(  0-C , 21-H ) :   0.9437 B(  1-C ,  2-O ) :   0.9068 B(  1-C , 22-H ) :   0.9120
B(  1-C , 23-H ) :   0.9326 B(  2-O ,  3-P ) :   1.0749 B(  3-P ,  4-S ) :   1.6709
B(  3-P ,  5-O ) :   1.1177 B(  3-P ,  8-S ) :   0.9517 B(  4-S ,  8-S ) :   0.1124
B(  5-O ,  6-C ) :   0.8923 B(  6-C ,  7-C ) :   1.1689 B(  6-C , 24-H ) :   0.9353
B(  6-C , 25-H ) :   0.9078 B(  7-C , 26-H ) :   0.9415 B(  7-C , 27-H ) :   0.9472
B(  7-C , 28-H ) :   0.9394 B(  8-S ,  9-C ) :   0.9970 B(  9-C , 10-S ) :   1.0029
B(  9-C , 29-H ) :   0.9007 B(  9-C , 30-H ) :   0.8917 B( 10-S , 11-P ) :   0.9608
B( 10-S , 12-S ) :   0.1112 B( 11-P , 12-S ) :   1.6200 B( 11-P , 13-O ) :   1.1310
B( 11-P , 16-O ) :   1.0797 B( 13-O , 14-C ) :   0.8833 B( 14-C , 15-C ) :   1.1580
B( 14-C , 31-H ) :   0.9190 B( 14-C , 32-H ) :   0.9214 B( 15-C , 33-H ) :   0.9409
B( 15-C , 34-H ) :   0.9470 B( 15-C , 35-H ) :   0.9431 B( 16-O , 17-C ) :   0.9059
B( 17-C , 18-C ) :   1.1668 B( 17-C , 36-H ) :   0.9339 B( 17-C , 37-H ) :   0.9183
B( 18-C , 38-H ) :   0.9368 B( 18-C , 39-H ) :   0.9348 B( 18-C , 40-H ) :   0.9433

Dispersion correction           -0.066402939
FINAL SINGLE POINT ENERGY     -2929.519870262605

DIPOLE MOMENT
-------------

Method             : SCF
Type of density    : Electron Density
Multiplicity       :   1
Irrep              :   0
Energy             : -2929.6387886667880593 Eh
Relativity type    :
Basis              : AO
                                X                 Y                 Z
Electronic contribution:     -2.180854487      -5.911945221       1.643661008
Nuclear contribution   :      2.482954436       5.841769875      -1.565577307
                        -----------------------------------------
Total Dipole Moment    :      0.302099950      -0.070175347       0.078083701
                        -----------------------------------------
Magnitude (a.u.)       :      0.319821862
Magnitude (Debye)      :      0.812922568

Rotational constants in cm-1:             0.013049             0.005081             0.004608
Rotational constants in MHz :           391.211395           152.314282           138.133949

                             ****ORCA TERMINATED NORMALLY****
TOTAL RUN TIME: 0 days 0 hours 0 minutes 21 seconds 183 msec
