                         Program Version 6.0.1  -  RELEASE   -
|  1> ! r2scan-3c def2/J RI DEFGRID2 scfconv6 printgap
|  2> %output
|  3>     printlevel normal
|  4> end
|  5> * xyz 0 1
|  6> C 5.4247587238 -2.2277208377 -1.7600223004
|  7> C 4.929976285 -1.0993138826 -0.8691033888
|  8> O 3.6809024729 -1.4469938663 -0.2405901236
|  9> C 2.5636704816 -1.2252738638 -0.902148852
| 10> O 2.4980898615 -0.7196816304 -2.0004205721
| 11> C 1.3542372393 -1.6935234833 -0.1116370556
| 12> C 0.2572419862 -0.6424040352 -0.203141754
| 13> H 0.0897904047 -0.3730016667 -1.2550109721
| 14> C 0.5939019815 0.6403187541 0.5308929938
| 15> O -0.2531897102 1.2971974336 1.1023131875
| 16> O 1.8604990892 0.9487741871 0.4499921363
| 17> C 2.3136848634 2.1618982935 1.0931219722
| 18> C 2.6509848901 1.9009201651 2.5515230202
| 19> S -1.3176210903 -1.2622170693 0.4714626325
| 20> P -2.5338034949 0.4296078913 0.045700772
| 21> S -1.9837303198 1.5788228649 -1.442188092
| 22> O -3.9373289569 -0.3045841674 -0.2403422137
| 23> C -4.1404063917 -1.0966712658 -1.4128760427
| 24> O -2.9287958664 1.1879599351 1.3719626481
| 25> C -3.4514112323 0.4992933597 2.5254595801
| 26> H 5.5067841992 -3.1478483338 -1.1881982815
| 27> H 4.7334799011 -2.3825334162 -2.5852646342
| 28> H 6.3984525863 -1.9673475455 -2.161700765
| 29> H 4.7841051625 -0.1836676106 -1.4490638975
| 30> H 5.6129860451 -0.9213611113 -0.0385704679
| 31> H 1.6430119876 -1.8840861044 0.920621054
| 32> H 0.9911708639 -2.6213115532 -0.5578845687
| 33> H 3.1943098636 2.4552313827 0.5217768292
| 34> H 1.5295236383 2.9180220857 0.9979521034
| 35> H 1.7544600408 1.6184682454 3.09863206
| 36> H 3.3834749066 1.1022429457 2.6292419045
| 37> H 3.0588848442 2.8061594478 2.9887326525
| 38> H -5.2117592515 -1.2717419449 -1.467052348
| 39> H -3.6001054989 -2.0389464205 -1.3216914978
| 40> H -3.7981648639 -0.5537233499 -2.2956817216
| 41> H -3.5114776144 1.257760476 3.301581511
| 42> H -2.7731275004 -0.3014780699 2.8207711392
| 43> H -4.4353279788 0.0929948758 2.2981542927
| 44> *
| 45>
| 46>                          ****END OF INPUT****

CARTESIAN COORDINATES (ANGSTROEM)
---------------------------------
  C      5.424759   -2.227721   -1.760022
  C      4.929976   -1.099314   -0.869103
  O      3.680902   -1.446994   -0.240590
  C      2.563670   -1.225274   -0.902149
  O      2.498090   -0.719682   -2.000421
  C      1.354237   -1.693523   -0.111637
  C      0.257242   -0.642404   -0.203142
  H      0.089790   -0.373002   -1.255011
  C      0.593902    0.640319    0.530893
  O     -0.253190    1.297197    1.102313
  O      1.860499    0.948774    0.449992
  C      2.313685    2.161898    1.093122
  C      2.650985    1.900920    2.551523
  S     -1.317621   -1.262217    0.471463
  P     -2.533803    0.429608    0.045701
  S     -1.983730    1.578823   -1.442188
  O     -3.937329   -0.304584   -0.240342
  C     -4.140406   -1.096671   -1.412876
  O     -2.928796    1.187960    1.371963
  C     -3.451411    0.499293    2.525460
  H      5.506784   -3.147848   -1.188198
  H      4.733480   -2.382533   -2.585265
  H      6.398453   -1.967348   -2.161701
  H      4.784105   -0.183668   -1.449064
  H      5.612986   -0.921361   -0.038570
  H      1.643012   -1.884086    0.920621
  H      0.991171   -2.621312   -0.557885
  H      3.194310    2.455231    0.521777
  H      1.529524    2.918022    0.997952
  H      1.754460    1.618468    3.098632
  H      3.383475    1.102243    2.629242
  H      3.058885    2.806159    2.988733
  H     -5.211759   -1.271742   -1.467052
  H     -3.600105   -2.038946   -1.321691
  H     -3.798165   -0.553723   -2.295682
  H     -3.511478    1.257760    3.301582
  H     -2.773128   -0.301478    2.820771
  H     -4.435328    0.092995    2.298154

 Total Charge           Charge          ....    0
 Multiplicity           Mult            ....    1
 Number of Electrons    NEL             ....  174
 Basis Dimension        Dim             ....  510

ORBITAL ENERGIES
----------------

  NO   OCC          E(Eh)            E(eV)
   0   2.0000     -88.571630     -2410.1566
   1   2.0000     -88.504833     -2408.3389
   2   2.0000     -76.904939     -2092.6898
   3   2.0000     -19.015231      -517.4307
   4   2.0000     -19.007346      -517.2162
   5   2.0000     -18.981195      -516.5046
   6   2.0000     -18.977803      -516.4123
   7   2.0000     -18.941014      -515.4112
   8   2.0000     -18.936695      -515.2937
   9   2.0000     -10.167124      -276.6615
  10   2.0000     -10.165364      -276.6136
  11   2.0000     -10.102043      -274.8906
  12   2.0000     -10.099909      -274.8325
  13   2.0000     -10.094694      -274.6906
  14   2.0000     -10.089102      -274.5384
  15   2.0000     -10.080641      -274.3082
  16   2.0000     -10.066198      -273.9152
  17   2.0000     -10.037385      -273.1311
  18   2.0000     -10.035383      -273.0766
  19   2.0000      -7.865963      -214.0437
  20   2.0000      -7.799625      -212.2386
  21   2.0000      -6.582633      -179.1225
  22   2.0000      -5.812790      -158.1741
  23   2.0000      -5.809861      -158.0943
  24   2.0000      -5.803095      -157.9103
  25   2.0000      -5.747602      -156.4002
  26   2.0000      -5.740015      -156.1938
  27   2.0000      -5.739183      -156.1711
  28   2.0000      -4.728390      -128.6660
  29   2.0000      -4.727837      -128.6510
  30   2.0000      -4.726017      -128.6015
  31   2.0000      -1.093114       -29.7451
  32   2.0000      -1.083031       -29.4708
  33   2.0000      -1.038876       -28.2692
  34   2.0000      -0.996362       -27.1124
  35   2.0000      -0.992370       -27.0038
  36   2.0000      -0.987135       -26.8613
  37   2.0000      -0.812367       -22.1056
  38   2.0000      -0.757621       -20.6159
  39   2.0000      -0.752613       -20.4796
  40   2.0000      -0.726616       -19.7722
  41   2.0000      -0.696792       -18.9607
  42   2.0000      -0.665864       -18.1191
  43   2.0000      -0.660360       -17.9693
  44   2.0000      -0.645284       -17.5591
  45   2.0000      -0.633964       -17.2510
  46   2.0000      -0.601013       -16.3544
  47   2.0000      -0.540248       -14.7009
  48   2.0000      -0.532675       -14.4948
  49   2.0000      -0.525482       -14.2991
  50   2.0000      -0.496547       -13.5117
  51   2.0000      -0.494264       -13.4496
  52   2.0000      -0.483243       -13.1497
  53   2.0000      -0.467465       -12.7204
  54   2.0000      -0.462851       -12.5948
  55   2.0000      -0.453385       -12.3372
  56   2.0000      -0.448088       -12.1931
  57   2.0000      -0.441562       -12.0155
  58   2.0000      -0.431616       -11.7449
  59   2.0000      -0.425591       -11.5809
  60   2.0000      -0.423578       -11.5262
  61   2.0000      -0.419196       -11.4069
  62   2.0000      -0.408886       -11.1264
  63   2.0000      -0.404761       -11.0141
  64   2.0000      -0.397382       -10.8133
  65   2.0000      -0.383982       -10.4487
  66   2.0000      -0.380649       -10.3580
  67   2.0000      -0.371600       -10.1118
  68   2.0000      -0.367105        -9.9894
  69   2.0000      -0.356492        -9.7006
  70   2.0000      -0.350582        -9.5398
  71   2.0000      -0.347052        -9.4438
  72   2.0000      -0.341604        -9.2955
  73   2.0000      -0.327589        -8.9142
  74   2.0000      -0.319223        -8.6865
  75   2.0000      -0.316206        -8.6044
  76   2.0000      -0.309026        -8.4090
  77   2.0000      -0.304587        -8.2882
  78   2.0000      -0.289146        -7.8681
  79   2.0000      -0.279374        -7.6022
  80   2.0000      -0.278295        -7.5728
  81   2.0000      -0.266912        -7.2631
  82   2.0000      -0.252227        -6.8634
  83   2.0000      -0.246436        -6.7059
  84   2.0000      -0.233598        -6.3565
  85   2.0000      -0.206490        -5.6189
  86   2.0000      -0.198454        -5.4002
  87   0.0000      -0.044085        -1.1996
  88   0.0000      -0.028413        -0.7732
  89   0.0000      -0.016397        -0.4462
  90   0.0000       0.010975         0.2986
  91   0.0000       0.028548         0.7768

MULLIKEN ATOMIC CHARGES
-----------------------
   0 C :   -0.470297
   1 C :   -0.136656
   2 O :   -0.162141
   3 C :    0.323178
   4 O :   -0.399532
   5 C :   -0.398756
   6 C :   -0.027757
   7 H :    0.270200
   8 C :    0.287020
   9 O :   -0.405004
  10 O :   -0.093469
  11 C :   -0.148092
  12 C :   -0.469674
  13 S :   -0.215147
  14 P :    0.807754
  15 S :   -0.457155
  16 O :   -0.363098
  17 C :   -0.301255
  18 O :   -0.302456
  19 C :   -0.291141
  20 H :    0.153006
  21 H :    0.174854
  22 H :    0.149115
  23 H :    0.170134
  24 H :    0.148985
  25 H :    0.193634
  26 H :    0.184096
  27 H :    0.154527
  28 H :    0.180208
  29 H :    0.174385
  30 H :    0.154368
  31 H :    0.152438
  32 H :    0.148424
  33 H :    0.153510
  34 H :    0.176444
  35 H :    0.155468
  36 H :    0.162494
  37 H :    0.167385
Sum of atomic charges:   -0.0000000

LOEWDIN ATOMIC CHARGES
----------------------
   0 C :   -0.388403
   1 C :    0.029535
   2 O :   -0.581500
   3 C :    0.354857
   4 O :   -0.424881
   5 C :   -0.202731
   6 C :   -0.203191
   7 H :    0.223534
   8 C :    0.360222
   9 O :   -0.446946
  10 O :   -0.568033
  11 C :    0.040203
  12 C :   -0.387075
  13 S :    0.187436
  14 P :    0.406875
  15 S :   -0.086269
  16 O :   -0.695133
  17 C :   -0.065772
  18 O :   -0.637990
  19 C :   -0.049934
  20 H :    0.157796
  21 H :    0.166199
  22 H :    0.160261
  23 H :    0.189138
  24 H :    0.178490
  25 H :    0.190174
  26 H :    0.190369
  27 H :    0.180877
  28 H :    0.194241
  29 H :    0.165867
  30 H :    0.158171
  31 H :    0.161524
  32 H :    0.175046
  33 H :    0.166440
  34 H :    0.176862
  35 H :    0.179890
  36 H :    0.171256
  37 H :    0.172597

  Mayer bond orders larger than 0.100000
B(  0-C ,  1-C ) :   0.9385 B(  0-C , 20-H ) :   0.9734 B(  0-C , 21-H ) :   0.9703
B(  0-C , 22-H ) :   0.9644 B(  1-C ,  2-O ) :   0.8087 B(  1-C , 23-H ) :   0.9680
B(  1-C , 24-H ) :   0.9605 B(  2-O ,  3-C ) :   1.0693 B(  3-C ,  4-O ) :   1.8785
B(  3-C ,  5-C ) :   0.8799 B(  5-C ,  6-C ) :   0.8557 B(  5-C , 25-H ) :   1.0030
B(  5-C , 26-H ) :   0.9371 B(  6-C ,  7-H ) :   0.8887 B(  6-C ,  8-C ) :   0.9732
B(  6-C , 13-S ) :   0.8824 B(  8-C ,  9-O ) :   1.8046 B(  8-C , 10-O ) :   1.1769
B(  9-O , 14-P ) :   0.1023 B( 10-O , 11-C ) :   0.7661 B( 11-C , 12-C ) :   0.9226
B( 11-C , 27-H ) :   0.9640 B( 11-C , 28-H ) :   0.9627 B( 12-C , 29-H ) :   0.9714
B( 12-C , 30-H ) :   0.9747 B( 12-C , 31-H ) :   0.9639 B( 13-S , 14-P ) :   0.9624
B( 14-P , 15-S ) :   1.7991 B( 14-P , 16-O ) :   1.0014 B( 14-P , 18-O ) :   1.1851
B( 16-O , 17-C ) :   0.8377 B( 17-C , 32-H ) :   0.9694 B( 17-C , 33-H ) :   0.9569
B( 17-C , 34-H ) :   0.9580 B( 18-O , 19-C ) :   0.7960 B( 19-C , 35-H ) :   0.9659
B( 19-C , 36-H ) :   0.9594 B( 19-C , 37-H ) :   0.9628

Dispersion correction           -0.016817608
FINAL SINGLE POINT ENERGY     -1981.447233543754

DIPOLE MOMENT
-------------

Method             : SCF
Type of density    : Electron Density
Multiplicity       :   1
Irrep              :   0
Energy             : -1981.4679961313941021 Eh
Relativity type    :
Basis              : AO
                                X                 Y                 Z
Electronic contribution:    -19.132662922       4.326357509      -3.638126267
Nuclear contribution   :     20.527225313      -5.441295333       4.926116891
                        -----------------------------------------
Total Dipole Moment    :      1.394562390      -1.114937824       1.287990624
                        -----------------------------------------
Magnitude (a.u.)       :      2.201547288
Magnitude (Debye)      :      5.595888493

Rotational constants in cm-1:             0.016727             0.005524             0.004873
Rotational constants in MHz :           501.469371           165.592569           146.095497

                             ****ORCA TERMINATED NORMALLY****
TOTAL RUN TIME: 0 days 0 hours 1 minutes 13 seconds 585 msec
