                         Program Version 6.0.1  -  RELEASE   -
|  1> ! r2scan-3c def2/J RI DEFGRID2 scfconv6 printgap
|  2> %output
|  3>     printlevel normal
|  4> end
|  5> %cpcm
|  6>     smd true
|  7>     smdsolvent "water"
|  8> end
|  9> * xyz 0 1
| 10> C 5.4247587238 -2.2277208377 -1.7600223004
| 11> C 4.929976285 -1.0993138826 -0.8691033888
| 12> O 3.6809024729 -1.4469938663 -0.2405901236
| 13> C 2.5636704816 -1.2252738638 -0.902148852
| 14> O 2.4980898615 -0.7196816304 -2.0004205721
| 15> C 1.3542372393 -1.6935234833 -0.1116370556
| 16> C 0.2572419862 -0.6424040352 -0.203141754
| 17> H 0.0897904047 -0.3730016667 -1.2550109721
| 18> C 0.5939019815 0.6403187541 0.5308929938
| 19> O -0.2531897102 1.2971974336 1.1023131875
| 20> O 1.8604990892 0.9487741871 0.4499921363
| 21> C 2.3136848634 2.1618982935 1.0931219722
| 22> C 2.6509848901 1.9009201651 2.5515230202
| 23> S -1.3176210903 -1.2622170693 0.4714626325
| 24> P -2.5338034949 0.4296078913 0.045700772
| 25> S -1.9837303198 1.5788228649 -1.442188092
| 26> O -3.9373289569 -0.3045841674 -0.2403422137
| 27> C -4.1404063917 -1.0966712658 -1.4128760427
| 28> O -2.9287958664 1.1879599351 1.3719626481
| 29> C -3.4514112323 0.4992933597 2.5254595801
| 30> H 5.5067841992 -3.1478483338 -1.1881982815
| 31> H 4.7334799011 -2.3825334162 -2.5852646342
| 32> H 6.3984525863 -1.9673475455 -2.161700765
| 33> H 4.7841051625 -0.1836676106 -1.4490638975
| 34> H 5.6129860451 -0.9213611113 -0.0385704679
| 35> H 1.6430119876 -1.8840861044 0.920621054
| 36> H 0.9911708639 -2.6213115532 -0.5578845687
| 37> H 3.1943098636 2.4552313827 0.5217768292
| 38> H 1.5295236383 2.9180220857 0.9979521034
| 39> H 1.7544600408 1.6184682454 3.09863206
| 40> H 3.3834749066 1.1022429457 2.6292419045
| 41> H 3.0588848442 2.8061594478 2.9887326525
| 42> H -5.2117592515 -1.2717419449 -1.467052348
| 43> H -3.6001054989 -2.0389464205 -1.3216914978
| 44> H -3.7981648639 -0.5537233499 -2.2956817216
| 45> H -3.5114776144 1.257760476 3.301581511
| 46> H -2.7731275004 -0.3014780699 2.8207711392
| 47> H -4.4353279788 0.0929948758 2.2981542927
| 48> *
| 49>
| 50>                          ****END OF INPUT****

CARTESIAN COORDINATES (ANGSTROEM)
---------------------------------
  C      5.424759   -2.227721   -1.760022
  C      4.929976   -1.099314   -0.869103
  O      3.680902   -1.446994   -0.240590
  C      2.563670   -1.225274   -0.902149
  O      2.498090   -0.719682   -2.000421
  C      1.354237   -1.693523   -0.111637
  C      0.257242   -0.642404   -0.203142
  H      0.089790   -0.373002   -1.255011
  C      0.593902    0.640319    0.530893
  O     -0.253190    1.297197    1.102313
  O      1.860499    0.948774    0.449992
  C      2.313685    2.161898    1.093122
  C      2.650985    1.900920    2.551523
  S     -1.317621   -1.262217    0.471463
  P     -2.533803    0.429608    0.045701
  S     -1.983730    1.578823   -1.442188
  O     -3.937329   -0.304584   -0.240342
  C     -4.140406   -1.096671   -1.412876
  O     -2.928796    1.187960    1.371963
  C     -3.451411    0.499293    2.525460
  H      5.506784   -3.147848   -1.188198
  H      4.733480   -2.382533   -2.585265
  H      6.398453   -1.967348   -2.161701
  H      4.784105   -0.183668   -1.449064
  H      5.612986   -0.921361   -0.038570
  H      1.643012   -1.884086    0.920621
  H      0.991171   -2.621312   -0.557885
  H      3.194310    2.455231    0.521777
  H      1.529524    2.918022    0.997952
  H      1.754460    1.618468    3.098632
  H      3.383475    1.102243    2.629242
  H      3.058885    2.806159    2.988733
  H     -5.211759   -1.271742   -1.467052
  H     -3.600105   -2.038946   -1.321691
  H     -3.798165   -0.553723   -2.295682
  H     -3.511478    1.257760    3.301582
  H     -2.773128   -0.301478    2.820771
  H     -4.435328    0.092995    2.298154

 Total Charge           Charge          ....    0
 Multiplicity           Mult            ....    1
 Number of Electrons    NEL             ....  174
 Basis Dimension        Dim             ....  510

ORBITAL ENERGIES
----------------

  NO   OCC          E(Eh)            E(eV)
   0   2.0000     -88.579668     -2410.3753
   1   2.0000     -88.524665     -2408.8786
   2   2.0000     -76.919742     -2093.0926
   3   2.0000     -19.017733      -517.4988
   4   2.0000     -19.008503      -517.2477
   5   2.0000     -18.994903      -516.8776
   6   2.0000     -18.988644      -516.7073
   7   2.0000     -18.952930      -515.7355
   8   2.0000     -18.948132      -515.6049
   9   2.0000     -10.176194      -276.9083
  10   2.0000     -10.172816      -276.8164
  11   2.0000     -10.098696      -274.7995
  12   2.0000     -10.090164      -274.5673
  13   2.0000     -10.086025      -274.4547
  14   2.0000     -10.084621      -274.4165
  15   2.0000     -10.078623      -274.2533
  16   2.0000     -10.059718      -273.7388
  17   2.0000     -10.021009      -272.6855
  18   2.0000     -10.019344      -272.6402
  19   2.0000      -7.873878      -214.2591
  20   2.0000      -7.819858      -212.7892
  21   2.0000      -6.597556      -179.5286
  22   2.0000      -5.820745      -158.3905
  23   2.0000      -5.817838      -158.3114
  24   2.0000      -5.810922      -158.1232
  25   2.0000      -5.767672      -156.9463
  26   2.0000      -5.760293      -156.7455
  27   2.0000      -5.759454      -156.7227
  28   2.0000      -4.743295      -129.0716
  29   2.0000      -4.742659      -129.0543
  30   2.0000      -4.741087      -129.0115
  31   2.0000      -1.097166       -29.8554
  32   2.0000      -1.086019       -29.5521
  33   2.0000      -1.051194       -28.6044
  34   2.0000      -1.007270       -27.4092
  35   2.0000      -1.002712       -27.2852
  36   2.0000      -0.996393       -27.1132
  37   2.0000      -0.814205       -22.1556
  38   2.0000      -0.751108       -20.4387
  39   2.0000      -0.745878       -20.2964
  40   2.0000      -0.728554       -19.8250
  41   2.0000      -0.697107       -18.9693
  42   2.0000      -0.667175       -18.1547
  43   2.0000      -0.659480       -17.9454
  44   2.0000      -0.654055       -17.7977
  45   2.0000      -0.626645       -17.0519
  46   2.0000      -0.597712       -16.2646
  47   2.0000      -0.540026       -14.6948
  48   2.0000      -0.527667       -14.3586
  49   2.0000      -0.525315       -14.2945
  50   2.0000      -0.498108       -13.5542
  51   2.0000      -0.495521       -13.4838
  52   2.0000      -0.489526       -13.3207
  53   2.0000      -0.472880       -12.8677
  54   2.0000      -0.462332       -12.5807
  55   2.0000      -0.459556       -12.5052
  56   2.0000      -0.450267       -12.2524
  57   2.0000      -0.447206       -12.1691
  58   2.0000      -0.436290       -11.8721
  59   2.0000      -0.425872       -11.5886
  60   2.0000      -0.420005       -11.4289
  61   2.0000      -0.417077       -11.3493
  62   2.0000      -0.408157       -11.1065
  63   2.0000      -0.404078       -10.9955
  64   2.0000      -0.392009       -10.6671
  65   2.0000      -0.380122       -10.3437
  66   2.0000      -0.374895       -10.2014
  67   2.0000      -0.367335        -9.9957
  68   2.0000      -0.359092        -9.7714
  69   2.0000      -0.355807        -9.6820
  70   2.0000      -0.349424        -9.5083
  71   2.0000      -0.342953        -9.3322
  72   2.0000      -0.339337        -9.2338
  73   2.0000      -0.329390        -8.9632
  74   2.0000      -0.318557        -8.6684
  75   2.0000      -0.312923        -8.5151
  76   2.0000      -0.311643        -8.4802
  77   2.0000      -0.307324        -8.3627
  78   2.0000      -0.291662        -7.9365
  79   2.0000      -0.287949        -7.8355
  80   2.0000      -0.282037        -7.6746
  81   2.0000      -0.276574        -7.5259
  82   2.0000      -0.263788        -7.1780
  83   2.0000      -0.258330        -7.0295
  84   2.0000      -0.243021        -6.6129
  85   2.0000      -0.226808        -6.1718
  86   2.0000      -0.219168        -5.9639
  87   0.0000      -0.052125        -1.4184
  88   0.0000      -0.037948        -1.0326
  89   0.0000      -0.022287        -0.6065
  90   0.0000       0.003092         0.0841
  91   0.0000       0.017394         0.4733

MULLIKEN ATOMIC CHARGES
-----------------------
   0 C :   -0.496159
   1 C :   -0.137766
   2 O :   -0.181763
   3 C :    0.358179
   4 O :   -0.476769
   5 C :   -0.405412
   6 C :   -0.033974
   7 H :    0.273177
   8 C :    0.304392
   9 O :   -0.454901
  10 O :   -0.103637
  11 C :   -0.146506
  12 C :   -0.494993
  13 S :   -0.199892
  14 P :    0.814204
  15 S :   -0.518895
  16 O :   -0.392570
  17 C :   -0.309447
  18 O :   -0.351593
  19 C :   -0.296108
  20 H :    0.167038
  21 H :    0.170535
  22 H :    0.171850
  23 H :    0.174582
  24 H :    0.177435
  25 H :    0.220205
  26 H :    0.221059
  27 H :    0.181539
  28 H :    0.179502
  29 H :    0.172768
  30 H :    0.169152
  31 H :    0.175030
  32 H :    0.177177
  33 H :    0.172950
  34 H :    0.175774
  35 H :    0.182052
  36 H :    0.177821
  37 H :    0.183963
Sum of atomic charges:    0.0000000

LOEWDIN ATOMIC CHARGES
----------------------
   0 C :   -0.391177
   1 C :    0.036042
   2 O :   -0.581120
   3 C :    0.364543
   4 O :   -0.479998
   5 C :   -0.194285
   6 C :   -0.199427
   7 H :    0.222688
   8 C :    0.365778
   9 O :   -0.488754
  10 O :   -0.566831
  11 C :    0.046139
  12 C :   -0.387910
  13 S :    0.206572
  14 P :    0.404947
  15 S :   -0.135819
  16 O :   -0.707039
  17 C :   -0.060608
  18 O :   -0.669910
  19 C :   -0.041784
  20 H :    0.162732
  21 H :    0.163043
  22 H :    0.168552
  23 H :    0.191011
  24 H :    0.191038
  25 H :    0.202474
  26 H :    0.204986
  27 H :    0.192644
  28 H :    0.193862
  29 H :    0.164009
  30 H :    0.163855
  31 H :    0.170076
  32 H :    0.187248
  33 H :    0.174751
  34 H :    0.176578
  35 H :    0.191216
  36 H :    0.178813
  37 H :    0.181065

  Mayer bond orders larger than 0.100000
B(  0-C ,  1-C ) :   0.9354 B(  0-C , 20-H ) :   0.9694 B(  0-C , 21-H ) :   0.9683
B(  0-C , 22-H ) :   0.9596 B(  1-C ,  2-O ) :   0.7916 B(  1-C , 23-H ) :   0.9630
B(  1-C , 24-H ) :   0.9502 B(  2-O ,  3-C ) :   1.0902 B(  3-C ,  4-O ) :   1.8167
B(  3-C ,  5-C ) :   0.8940 B(  5-C ,  6-C ) :   0.8497 B(  5-C , 25-H ) :   0.9871
B(  5-C , 26-H ) :   0.9284 B(  6-C ,  7-H ) :   0.8936 B(  6-C ,  8-C ) :   0.9631
B(  6-C , 13-S ) :   0.8717 B(  8-C ,  9-O ) :   1.7697 B(  8-C , 10-O ) :   1.1975
B(  9-O , 14-P ) :   0.1040 B( 10-O , 11-C ) :   0.7509 B( 11-C , 12-C ) :   0.9231
B( 11-C , 27-H ) :   0.9527 B( 11-C , 28-H ) :   0.9570 B( 12-C , 29-H ) :   0.9689
B( 12-C , 30-H ) :   0.9706 B( 12-C , 31-H ) :   0.9583 B( 13-S , 14-P ) :   0.9920
B( 14-P , 15-S ) :   1.7801 B( 14-P , 16-O ) :   1.0062 B( 14-P , 18-O ) :   1.1789
B( 16-O , 17-C ) :   0.8294 B( 17-C , 32-H ) :   0.9589 B( 17-C , 33-H ) :   0.9501
B( 17-C , 34-H ) :   0.9551 B( 18-O , 19-C ) :   0.7883 B( 19-C , 35-H ) :   0.9547
B( 19-C , 36-H ) :   0.9489 B( 19-C , 37-H ) :   0.9535

Dispersion correction           -0.016817608
FINAL SINGLE POINT ENERGY     -1981.463672145211

DIPOLE MOMENT
-------------

Method             : SCF
Type of density    : Electron Density
Multiplicity       :   1
Irrep              :   0
Energy             : -1981.4844347328514687 Eh
Relativity type    :
Basis              : AO
                                X                 Y                 Z
Electronic contribution:    -18.640220701       3.521198668      -3.129872161
Nuclear contribution   :     20.527225313      -5.441295333       4.926116891
                        -----------------------------------------
Total Dipole Moment    :      1.887004611      -1.920096666       1.796244730
                        -----------------------------------------
Magnitude (a.u.)       :      3.236364124
Magnitude (Debye)      :      8.226183857

Rotational constants in cm-1:             0.016727             0.005524             0.004873
Rotational constants in MHz :           501.469371           165.592569           146.095497

                             ****ORCA TERMINATED NORMALLY****
TOTAL RUN TIME: 0 days 0 hours 1 minutes 40 seconds 190 msec
