                         Program Version 6.0.0  -   RELEASE  -
|  1> ! pbe def2-sv(p) def2/J RI DEFGRID1 loosescf d4 GCP(DFT/SV(P)) printgap
|  2> %output
|  3>     printlevel normal
|  4> end
|  5> * xyz 0 1
|  6> C 4.9024347938 1.2038205363 -1.0389636882
|  7> C 4.4260466367 -0.2134499078 -1.2770589199
|  8> O 3.5834145703 -0.7049524951 -0.2180421712
|  9> P 2.2753699586 0.0128719157 0.3303061327
| 10> S 2.4951258054 1.5202111124 1.554563525
| 11> O 1.5592363303 -1.1777564569 1.0749548672
| 12> C 1.3626825105 -2.5075676703 0.5270299129
| 13> C 1.3879148894 -3.4913002797 1.6781155658
| 14> S 1.1792534079 0.4131758452 -1.459435058
| 15> C 0.0560567844 1.641869871 -0.7400419453
| 16> S -0.904669102 1.0303069496 0.6688649418
| 17> P -2.345424466 -0.1025308053 -0.4345582243
| 18> S -1.7016804109 -1.6173117456 -1.4897501115
| 19> O -3.1087772429 0.9416824962 -1.3377154759
| 20> C -3.9958796342 1.9799932306 -0.8424205612
| 21> C -3.2932735016 3.3218155047 -0.7800424645
| 22> O -3.4237904362 -0.4710095233 0.6742222669
| 23> C -3.3188899017 -1.6622621765 1.4737445503
| 24> C -2.2587874014 -1.5299851947 2.5483546186
| 25> H 5.394680033 1.2810200785 -0.0724966923
| 26> H 5.5983439644 1.4856504435 -1.8225439824
| 27> H 4.0574534269 1.890665284 -1.0490752288
| 28> H 5.2592581938 -0.9185157851 -1.2880572393
| 29> H 3.8687676155 -0.2826426536 -2.2157248657
| 30> H 0.3990988518 -2.5148345062 0.0086728907
| 31> H 2.1561079302 -2.7173567598 -0.1920511289
| 32> H 2.3600771394 -3.4735539955 2.1632112774
| 33> H 0.6278490724 -3.2319799045 2.4096424302
| 34> H 1.1923048235 -4.4872627467 1.2941559117
| 35> H -0.6099301094 1.9545271784 -1.5416795235
| 36> H 0.6428865324 2.4758394656 -0.3559544485
| 37> H -4.8106583304 1.9955908938 -1.5681936221
| 38> H -4.377922313 1.683368461 0.134975886
| 39> H -4.0209496504 4.0840592476 -0.5191849329
| 40> H -2.5086907843 3.3150850003 -0.027196003
| 41> H -2.8595814382 3.5652594683 -1.7465196683
| 42> H -4.3140413536 -1.7776470706 1.9055337385
| 43> H -3.1000644929 -2.5061626484 0.8112407809
| 44> H -1.2711165738 -1.4406725456 2.097864141
| 45> H -2.4407414433 -0.6459359532 3.1542863865
| 46> H -2.2799002733 -2.4109469881 3.1820690959
| 47> *
| 48>
| 49>                          ****END OF INPUT****

CARTESIAN COORDINATES (ANGSTROEM)
---------------------------------
  C      4.902435    1.203821   -1.038964
  C      4.426047   -0.213450   -1.277059
  O      3.583415   -0.704952   -0.218042
  P      2.275370    0.012872    0.330306
  S      2.495126    1.520211    1.554564
  O      1.559236   -1.177756    1.074955
  C      1.362683   -2.507568    0.527030
  C      1.387915   -3.491300    1.678116
  S      1.179253    0.413176   -1.459435
  C      0.056057    1.641870   -0.740042
  S     -0.904669    1.030307    0.668865
  P     -2.345424   -0.102531   -0.434558
  S     -1.701680   -1.617312   -1.489750
  O     -3.108777    0.941682   -1.337715
  C     -3.995880    1.979993   -0.842421
  C     -3.293274    3.321816   -0.780042
  O     -3.423790   -0.471010    0.674222
  C     -3.318890   -1.662262    1.473745
  C     -2.258787   -1.529985    2.548355
  H      5.394680    1.281020   -0.072497
  H      5.598344    1.485650   -1.822544
  H      4.057453    1.890665   -1.049075
  H      5.259258   -0.918516   -1.288057
  H      3.868768   -0.282643   -2.215725
  H      0.399099   -2.514835    0.008673
  H      2.156108   -2.717357   -0.192051
  H      2.360077   -3.473554    2.163211
  H      0.627849   -3.231980    2.409642
  H      1.192305   -4.487263    1.294156
  H     -0.609930    1.954527   -1.541680
  H      0.642887    2.475839   -0.355954
  H     -4.810658    1.995591   -1.568194
  H     -4.377922    1.683368    0.134976
  H     -4.020950    4.084059   -0.519185
  H     -2.508691    3.315085   -0.027196
  H     -2.859581    3.565259   -1.746520
  H     -4.314041   -1.777647    1.905534
  H     -3.100064   -2.506163    0.811241
  H     -1.271117   -1.440673    2.097864
  H     -2.440741   -0.645936    3.154286
  H     -2.279900   -2.410947    3.182069

 Total Charge           Charge          ....    0
 Multiplicity           Mult            ....    1
 Number of Electrons    NEL             ....  202
 Basis Dimension        Dim             ....  334

ORBITAL ENERGIES
----------------

  NO   OCC          E(Eh)            E(eV)
   0   2.0000     -88.042532     -2395.7591
   1   2.0000     -88.037572     -2395.6241
   2   2.0000     -87.985419     -2394.2050
   3   2.0000     -87.979445     -2394.0424
   4   2.0000     -76.427385     -2079.6949
   5   2.0000     -76.422776     -2079.5695
   6   2.0000     -18.797264      -511.4996
   7   2.0000     -18.795399      -511.4488
   8   2.0000     -18.792025      -511.3570
   9   2.0000     -18.783193      -511.1167
  10   2.0000      -9.960443      -271.0374
  11   2.0000      -9.957211      -270.9495
  12   2.0000      -9.957110      -270.9467
  13   2.0000      -9.955776      -270.9104
  14   2.0000      -9.941526      -270.5227
  15   2.0000      -9.891702      -269.1669
  16   2.0000      -9.886925      -269.0369
  17   2.0000      -9.882148      -268.9069
  18   2.0000      -9.881661      -268.8937
  19   2.0000      -7.686694      -209.1656
  20   2.0000      -7.682534      -209.0524
  21   2.0000      -7.630351      -207.6324
  22   2.0000      -7.624801      -207.4814
  23   2.0000      -6.424982      -174.8327
  24   2.0000      -6.419632      -174.6871
  25   2.0000      -5.714426      -155.4974
  26   2.0000      -5.711401      -155.4151
  27   2.0000      -5.710249      -155.3838
  28   2.0000      -5.707127      -155.2988
  29   2.0000      -5.703751      -155.2070
  30   2.0000      -5.699608      -155.0942
  31   2.0000      -5.659258      -153.9962
  32   2.0000      -5.653864      -153.8495
  33   2.0000      -5.651064      -153.7733
  34   2.0000      -5.650405      -153.7553
  35   2.0000      -5.645339      -153.6175
  36   2.0000      -5.644863      -153.6045
  37   2.0000      -4.648201      -126.4840
  38   2.0000      -4.646643      -126.4416
  39   2.0000      -4.644936      -126.3951
  40   2.0000      -4.642538      -126.3299
  41   2.0000      -4.641628      -126.3051
  42   2.0000      -4.639699      -126.2526
  43   2.0000      -0.991641       -26.9839
  44   2.0000      -0.983539       -26.7635
  45   2.0000      -0.948902       -25.8209
  46   2.0000      -0.938402       -25.5352
  47   2.0000      -0.762198       -20.7405
  48   2.0000      -0.721341       -19.6287
  49   2.0000      -0.711054       -19.3488
  50   2.0000      -0.693587       -18.8735
  51   2.0000      -0.687159       -18.6985
  52   2.0000      -0.674015       -18.3409
  53   2.0000      -0.649577       -17.6759
  54   2.0000      -0.637552       -17.3487
  55   2.0000      -0.594980       -16.1902
  56   2.0000      -0.586137       -15.9496
  57   2.0000      -0.582671       -15.8553
  58   2.0000      -0.566207       -15.4073
  59   2.0000      -0.562979       -15.3194
  60   2.0000      -0.506090       -13.7714
  61   2.0000      -0.500382       -13.6161
  62   2.0000      -0.477971       -13.0063
  63   2.0000      -0.470536       -12.8039
  64   2.0000      -0.462907       -12.5964
  65   2.0000      -0.449035       -12.2189
  66   2.0000      -0.443479       -12.0677
  67   2.0000      -0.433043       -11.7837
  68   2.0000      -0.425889       -11.5890
  69   2.0000      -0.416583       -11.3358
  70   2.0000      -0.410391       -11.1673
  71   2.0000      -0.403546       -10.9810
  72   2.0000      -0.393462       -10.7066
  73   2.0000      -0.378710       -10.3052
  74   2.0000      -0.377545       -10.2735
  75   2.0000      -0.374857       -10.2004
  76   2.0000      -0.364736        -9.9250
  77   2.0000      -0.362716        -9.8700
  78   2.0000      -0.354123        -9.6362
  79   2.0000      -0.352013        -9.5788
  80   2.0000      -0.349224        -9.5029
  81   2.0000      -0.343934        -9.3589
  82   2.0000      -0.340980        -9.2786
  83   2.0000      -0.334622        -9.1055
  84   2.0000      -0.329769        -8.9735
  85   2.0000      -0.323249        -8.7961
  86   2.0000      -0.317699        -8.6450
  87   2.0000      -0.306072        -8.3287
  88   2.0000      -0.295900        -8.0519
  89   2.0000      -0.294007        -8.0003
  90   2.0000      -0.289174        -7.8688
  91   2.0000      -0.273197        -7.4341
  92   2.0000      -0.269069        -7.3217
  93   2.0000      -0.264231        -7.1901
  94   2.0000      -0.255760        -6.9596
  95   2.0000      -0.239019        -6.5040
  96   2.0000      -0.217225        -5.9110
  97   2.0000      -0.207206        -5.6383
  98   2.0000      -0.199187        -5.4202
  99   2.0000      -0.195532        -5.3207
 100   2.0000      -0.186700        -5.0804
 101   0.0000      -0.042921        -1.1679
 102   0.0000      -0.026810        -0.7295
 103   0.0000      -0.004749        -0.1292
 104   0.0000      -0.000022        -0.0006
 105   0.0000       0.015070         0.4101

MULLIKEN ATOMIC CHARGES
-----------------------
   0 C :   -0.307083
   1 C :   -0.009900
   2 O :   -0.382158
   3 P :    0.607000
   4 S :   -0.319255
   5 O :   -0.358844
   6 C :   -0.024070
   7 C :   -0.289289
   8 S :   -0.094234
   9 C :   -0.356530
  10 S :   -0.080892
  11 P :    0.603578
  12 S :   -0.300593
  13 O :   -0.368185
  14 C :   -0.010511
  15 C :   -0.310786
  16 O :   -0.383806
  17 C :   -0.003152
  18 C :   -0.353833
  19 H :    0.126808
  20 H :    0.110231
  21 H :    0.123129
  22 H :    0.108088
  23 H :    0.114149
  24 H :    0.124853
  25 H :    0.100032
  26 H :    0.115344
  27 H :    0.117775
  28 H :    0.109081
  29 H :    0.185492
  30 H :    0.193743
  31 H :    0.112790
  32 H :    0.115259
  33 H :    0.114491
  34 H :    0.129006
  35 H :    0.121741
  36 H :    0.105789
  37 H :    0.110193
  38 H :    0.166054
  39 H :    0.120648
  40 H :    0.117849
Sum of atomic charges:   -0.0000000

LOEWDIN ATOMIC CHARGES
----------------------
   0 C :   -0.369127
   1 C :   -0.114648
   2 O :   -0.245536
   3 P :    0.567209
   4 S :   -0.315615
   5 O :   -0.234810
   6 C :   -0.123931
   7 C :   -0.350384
   8 S :    0.067022
   9 C :   -0.480215
  10 S :    0.092107
  11 P :    0.564935
  12 S :   -0.298803
  13 O :   -0.243695
  14 C :   -0.109679
  15 C :   -0.364930
  16 O :   -0.247278
  17 C :   -0.118709
  18 C :   -0.372680
  19 H :    0.130388
  20 H :    0.129534
  21 H :    0.120251
  22 H :    0.120689
  23 H :    0.108597
  24 H :    0.104406
  25 H :    0.107655
  26 H :    0.126580
  27 H :    0.125296
  28 H :    0.129556
  29 H :    0.130786
  30 H :    0.132260
  31 H :    0.122954
  32 H :    0.114918
  33 H :    0.132533
  34 H :    0.121004
  35 H :    0.126517
  36 H :    0.118868
  37 H :    0.109548
  38 H :    0.126693
  39 H :    0.127442
  40 H :    0.132291

  Mayer bond orders larger than 0.100000
B(  0-C ,  1-C ) :   1.1672 B(  0-C , 19-H ) :   0.9429 B(  0-C , 20-H ) :   0.9350
B(  0-C , 21-H ) :   0.9324 B(  1-C ,  2-O ) :   0.9118 B(  1-C , 22-H ) :   0.9334
B(  1-C , 23-H ) :   0.9261 B(  2-O ,  3-P ) :   1.0881 B(  3-P ,  4-S ) :   1.6301
B(  3-P ,  5-O ) :   1.1397 B(  3-P ,  8-S ) :   0.9418 B(  4-S ,  8-S ) :   0.1123
B(  5-O ,  6-C ) :   0.8771 B(  6-C ,  7-C ) :   1.1683 B(  6-C , 24-H ) :   0.9002
B(  6-C , 25-H ) :   0.9197 B(  7-C , 26-H ) :   0.9485 B(  7-C , 27-H ) :   0.9502
B(  7-C , 28-H ) :   0.9411 B(  8-S ,  9-C ) :   1.0096 B(  9-C , 10-S ) :   0.9930
B(  9-C , 29-H ) :   0.8916 B(  9-C , 30-H ) :   0.8859 B( 10-S , 11-P ) :   0.9509
B( 10-S , 12-S ) :   0.1124 B( 11-P , 12-S ) :   1.6573 B( 11-P , 13-O ) :   1.1177
B( 11-P , 16-O ) :   1.0794 B( 13-O , 14-C ) :   0.8954 B( 14-C , 15-C ) :   1.1687
B( 14-C , 31-H ) :   0.9353 B( 14-C , 32-H ) :   0.9181 B( 15-C , 33-H ) :   0.9382
B( 15-C , 34-H ) :   0.9319 B( 15-C , 35-H ) :   0.9429 B( 16-O , 17-C ) :   0.9058
B( 17-C , 18-C ) :   1.1622 B( 17-C , 36-H ) :   0.9327 B( 17-C , 37-H ) :   0.9114
B( 18-C , 38-H ) :   0.9197 B( 18-C , 39-H ) :   0.9427 B( 18-C , 40-H ) :   0.9370

Dispersion correction           -0.066008610
FINAL SINGLE POINT ENERGY     -2929.517405867481

DIPOLE MOMENT
-------------

Method             : SCF
Type of density    : Electron Density
Multiplicity       :   1
Irrep              :   0
Energy             : -2929.6361496441545569 Eh
Relativity type    :
Basis              : AO
                                X                 Y                 Z
Electronic contribution:      0.365636577       2.479086781      -4.804366488
Nuclear contribution   :     -0.961574979      -2.490742154       4.585511991
                        -----------------------------------------
Total Dipole Moment    :     -0.595938401      -0.011655373      -0.218854497
                        -----------------------------------------
Magnitude (a.u.)       :      0.634961193
Magnitude (Debye)      :      1.613943091

Rotational constants in cm-1:             0.011647             0.005451             0.004693
Rotational constants in MHz :           349.169466           163.419026           140.679412

                             ****ORCA TERMINATED NORMALLY****
TOTAL RUN TIME: 0 days 0 hours 0 minutes 21 seconds 365 msec
