                         Program Version 6.0.0  -   RELEASE  -
|  1> ! pbe def2-sv(p) def2/J RI DEFGRID1 loosescf d4 GCP(DFT/SV(P)) printgap
|  2> %output
|  3>     printlevel normal
|  4> end
|  5> * xyz 0 1
|  6> C 0.5963600036 1.4401879486 0.063049033
|  7> C 1.5274062134 0.2098263642 0.0414669869
|  8> H 2.3198606435 0.3477409845 -0.6998455758
|  9> C 0.7373823135 -1.0557533271 -0.3646091687
| 10> H 1.2083113539 -1.9054699963 0.1484691306
| 11> C -0.7116323155 -0.9290032407 0.133908851
| 12> H -1.2888678932 -1.824882884 -0.1414752896
| 13> C -1.3745486917 0.2881919129 -0.5515543312
| 14> H -1.7924062648 -0.0190625125 -1.5212743717
| 15> O -0.4662629284 1.3094911342 -0.8651582893
| 16> O -2.3843704518 0.7388587519 0.3045428833
| 17> O -0.6696753924 -0.8007437026 1.5317098183
| 18> O 0.8010974401 -1.2054850579 -1.7596155452
| 19> O 2.1700955215 0.0385802676 1.2767555418
| 20> H 1.131550375 2.3420230638 -0.2305036443
| 21> H 0.1991952213 1.5686210262 1.0775675142
| 22> H -2.8081539573 1.5239631763 -0.0717840404
| 23> H -1.5351248359 -0.4754376136 1.8296247895
| 24> H 0.5498213556 -2.1065563205 -2.0081210919
| 25> H 1.4972988561 -0.1772587109 1.9436260105
| 26> *
| 27>
| 28>                          ****END OF INPUT****

CARTESIAN COORDINATES (ANGSTROEM)
---------------------------------
  C      0.596360    1.440188    0.063049
  C      1.527406    0.209826    0.041467
  H      2.319861    0.347741   -0.699846
  C      0.737382   -1.055753   -0.364609
  H      1.208311   -1.905470    0.148469
  C     -0.711632   -0.929003    0.133909
  H     -1.288868   -1.824883   -0.141475
  C     -1.374549    0.288192   -0.551554
  H     -1.792406   -0.019063   -1.521274
  O     -0.466263    1.309491   -0.865158
  O     -2.384370    0.738859    0.304543
  O     -0.669675   -0.800744    1.531710
  O      0.801097   -1.205485   -1.759616
  O      2.170096    0.038580    1.276756
  H      1.131550    2.342023   -0.230504
  H      0.199195    1.568621    1.077568
  H     -2.808154    1.523963   -0.071784
  H     -1.535125   -0.475438    1.829625
  H      0.549821   -2.106556   -2.008121
  H      1.497299   -0.177259    1.943626

 Total Charge           Charge          ....    0
 Multiplicity           Mult            ....    1
 Number of Electrons    NEL             ....   80
 Basis Dimension        Dim             ....  160

ORBITAL ENERGIES
----------------

  NO   OCC          E(Eh)            E(eV)
   0   2.0000     -18.772086      -510.8144
   1   2.0000     -18.764537      -510.6090
   2   2.0000     -18.761854      -510.5360
   3   2.0000     -18.756951      -510.4026
   4   2.0000     -18.736479      -509.8455
   5   2.0000      -9.986916      -271.7578
   6   2.0000      -9.947313      -270.6801
   7   2.0000      -9.941373      -270.5185
   8   2.0000      -9.931190      -270.2414
   9   2.0000      -9.924689      -270.0645
  10   2.0000      -0.984367       -26.7860
  11   2.0000      -0.940359       -25.5885
  12   2.0000      -0.932932       -25.3864
  13   2.0000      -0.917654       -24.9706
  14   2.0000      -0.909370       -24.7452
  15   2.0000      -0.691629       -18.8202
  16   2.0000      -0.673582       -18.3291
  17   2.0000      -0.592093       -16.1117
  18   2.0000      -0.580044       -15.7838
  19   2.0000      -0.520337       -14.1591
  20   2.0000      -0.493678       -13.4337
  21   2.0000      -0.489593       -13.3225
  22   2.0000      -0.471446       -12.8287
  23   2.0000      -0.454171       -12.3586
  24   2.0000      -0.438393       -11.9293
  25   2.0000      -0.398982       -10.8569
  26   2.0000      -0.390211       -10.6182
  27   2.0000      -0.380173       -10.3450
  28   2.0000      -0.360578        -9.8118
  29   2.0000      -0.353058        -9.6072
  30   2.0000      -0.333522        -9.0756
  31   2.0000      -0.311863        -8.4862
  32   2.0000      -0.306546        -8.3415
  33   2.0000      -0.285417        -7.7666
  34   2.0000      -0.261500        -7.1158
  35   2.0000      -0.254823        -6.9341
  36   2.0000      -0.239887        -6.5277
  37   2.0000      -0.230597        -6.2749
  38   2.0000      -0.216392        -5.8883
  39   2.0000      -0.200319        -5.4510
  40   0.0000       0.010760         0.2928
  41   0.0000       0.015816         0.4304
  42   0.0000       0.051053         1.3892
  43   0.0000       0.066696         1.8149
  44   0.0000       0.076129         2.0716

MULLIKEN ATOMIC CHARGES
-----------------------
   0 C :    0.078432
   1 C :    0.045763
   2 H :    0.076282
   3 C :    0.042743
   4 H :    0.076521
   5 C :   -0.032336
   6 H :    0.058637
   7 C :    0.213662
   8 H :    0.059658
   9 O :   -0.313100
  10 O :   -0.413144
  11 O :   -0.431597
  12 O :   -0.405191
  13 O :   -0.431802
  14 H :    0.095085
  15 H :    0.050944
  16 H :    0.309881
  17 H :    0.316625
  18 H :    0.300865
  19 H :    0.302072
Sum of atomic charges:   -0.0000000

LOEWDIN ATOMIC CHARGES
----------------------
   0 C :   -0.126977
   1 C :   -0.069143
   2 H :    0.121259
   3 C :   -0.073652
   4 H :    0.107686
   5 C :   -0.087713
   6 H :    0.099450
   7 C :   -0.007363
   8 H :    0.097436
   9 O :   -0.151782
  10 O :   -0.321437
  11 O :   -0.315791
  12 O :   -0.312942
  13 O :   -0.316330
  14 H :    0.118084
  15 H :    0.096726
  16 H :    0.291635
  17 H :    0.287371
  18 H :    0.288119
  19 H :    0.275365

  Mayer bond orders larger than 0.100000
B(  0-C ,  1-C ) :   1.0576 B(  0-C ,  9-O ) :   1.0139 B(  0-C , 14-H ) :   0.9266
B(  0-C , 15-H ) :   0.8869 B(  1-C ,  2-H ) :   0.8836 B(  1-C ,  3-C ) :   0.9892
B(  1-C , 13-O ) :   1.0485 B(  3-C ,  4-H ) :   0.9030 B(  3-C ,  5-C ) :   1.0123
B(  3-C , 12-O ) :   1.0702 B(  5-C ,  6-H ) :   0.8868 B(  5-C ,  7-C ) :   0.9714
B(  5-C , 11-O ) :   1.0607 B(  7-C ,  8-H ) :   0.9054 B(  7-C ,  9-O ) :   1.0793
B(  7-C , 10-O ) :   1.1347 B( 10-O , 16-H ) :   0.8376 B( 11-O , 17-H ) :   0.8152
B( 12-O , 18-H ) :   0.8472 B( 13-O , 19-H ) :   0.8308

Dispersion correction           -0.019889919
FINAL SINGLE POINT ENERGY      -571.413777868032

DIPOLE MOMENT
-------------

Method             : SCF
Type of density    : Electron Density
Multiplicity       :   1
Irrep              :   0
Energy             :  -571.5229672721376346 Eh
Relativity type    :
Basis              : AO
                                X                 Y                 Z
Electronic contribution:     -0.687048637       0.330664332      -0.421348827
Nuclear contribution   :     -0.494590287      -0.680215970       0.313342309
                        -----------------------------------------
Total Dipole Moment    :     -1.181638924      -0.349551638      -0.108006517
                        -----------------------------------------
Magnitude (a.u.)       :      1.236981124
Magnitude (Debye)      :      3.144156147

Rotational constants in cm-1:             0.060128             0.040199             0.038209
Rotational constants in MHz :          1802.582791          1205.131081          1145.479211

                             ****ORCA TERMINATED NORMALLY****
TOTAL RUN TIME: 0 days 0 hours 0 minutes 11 seconds 957 msec
