                         Program Version 6.0.0  -   RELEASE  -
|  1> ! pbe def2-sv(p) def2/J RI DEFGRID1 loosescf d4 GCP(DFT/SV(P)) printgap
|  2> %output
|  3>     printlevel normal
|  4> end
|  5> * xyz 0 1
|  6> C 5.2472432968 -0.3634768349 -1.5771946777
|  7> C 4.5084944517 -0.7322665883 -0.3058319245
|  8> O 3.5632400232 0.2855019163 0.077220925
|  9> P 2.0759210762 0.3835701959 -0.4853837101
| 10> S 1.8602528891 0.6752070025 -2.4065037722
| 11> O 1.5284603865 1.5774609348 0.3808768834
| 12> C 1.7157457213 1.6486638694 1.8179961225
| 13> C 0.782873156 2.7142188862 2.3519637064
| 14> S 1.2448744598 -1.4336822788 0.2551504886
| 15> C 0.0528494828 -1.8230783934 -1.0642113011
| 16> S -1.6361262881 -2.0164925283 -0.4576738873
| 17> P -1.9526459716 -0.0081868999 0.1764878224
| 18> S -1.4038626647 1.405676461 -1.0610470985
| 19> O -1.2143948324 0.09849722 1.5670475054
| 20> C -1.4926684414 -0.7859464384 2.6847367954
| 21> C -2.4032861858 -0.1060147997 3.6853494355
| 22> O -3.484037998 0.0026639023 0.6006089666
| 23> C -4.5464365801 0.2813620258 -0.3280930603
| 24> C -4.6759683979 -0.7866939355 -1.394316995
| 25> H 4.554610065 -0.2983001541 -2.4133882254
| 26> H 5.7383536168 0.5986534349 -1.4593546093
| 27> H 5.9917832865 -1.1236749866 -1.7901642686
| 28> H 5.190240253 -0.7912113971 0.5449218058
| 29> H 3.981208325 -1.6835426987 -0.4183085557
| 30> H 1.4904528021 0.6661729032 2.2431948431
| 31> H 2.7625056485 1.8945599766 2.0059201577
| 32> H -0.2467629375 2.4535462134 2.1197426048
| 33> H 0.9062317339 2.7910743947 3.4273914832
| 34> H 1.0084286327 3.6712342028 1.8899876902
| 35> H 0.3284806714 -2.781209039 -1.4974754543
| 36> H 0.0982620282 -1.0255712075 -1.8121641489
| 37> H -1.9392390089 -1.7084513061 2.3043678754
| 38> H -0.5137350368 -1.0054215668 3.1158321579
| 39> H -3.3659642527 0.1103131865 3.2301035543
| 40> H -2.5486033233 -0.7660660774 4.5346903121
| 41> H -1.9586961143 0.8248138993 4.0264311727
| 42> H -5.4355023298 0.3303713225 0.3022759807
| 43> H -4.3572884259 1.2583081928 -0.7833761257
| 44> H -4.737490598 -1.7721241737 -0.939311837
| 45> H -5.5714847148 -0.6017204597 -1.9788740079
| 46> H -3.8124518397 -0.7580803681 -2.0573401687
| 47> *
| 48>
| 49>                          ****END OF INPUT****

CARTESIAN COORDINATES (ANGSTROEM)
---------------------------------
  C      5.247243   -0.363477   -1.577195
  C      4.508494   -0.732267   -0.305832
  O      3.563240    0.285502    0.077221
  P      2.075921    0.383570   -0.485384
  S      1.860253    0.675207   -2.406504
  O      1.528460    1.577461    0.380877
  C      1.715746    1.648664    1.817996
  C      0.782873    2.714219    2.351964
  S      1.244874   -1.433682    0.255150
  C      0.052849   -1.823078   -1.064211
  S     -1.636126   -2.016493   -0.457674
  P     -1.952646   -0.008187    0.176488
  S     -1.403863    1.405676   -1.061047
  O     -1.214395    0.098497    1.567048
  C     -1.492668   -0.785946    2.684737
  C     -2.403286   -0.106015    3.685349
  O     -3.484038    0.002664    0.600609
  C     -4.546437    0.281362   -0.328093
  C     -4.675968   -0.786694   -1.394317
  H      4.554610   -0.298300   -2.413388
  H      5.738354    0.598653   -1.459355
  H      5.991783   -1.123675   -1.790164
  H      5.190240   -0.791211    0.544922
  H      3.981208   -1.683543   -0.418309
  H      1.490453    0.666173    2.243195
  H      2.762506    1.894560    2.005920
  H     -0.246763    2.453546    2.119743
  H      0.906232    2.791074    3.427391
  H      1.008429    3.671234    1.889988
  H      0.328481   -2.781209   -1.497475
  H      0.098262   -1.025571   -1.812164
  H     -1.939239   -1.708451    2.304368
  H     -0.513735   -1.005422    3.115832
  H     -3.365964    0.110313    3.230104
  H     -2.548603   -0.766066    4.534690
  H     -1.958696    0.824814    4.026431
  H     -5.435502    0.330371    0.302276
  H     -4.357288    1.258308   -0.783376
  H     -4.737491   -1.772124   -0.939312
  H     -5.571485   -0.601720   -1.978874
  H     -3.812452   -0.758080   -2.057340

 Total Charge           Charge          ....    0
 Multiplicity           Mult            ....    1
 Number of Electrons    NEL             ....  202
 Basis Dimension        Dim             ....  334

ORBITAL ENERGIES
----------------

  NO   OCC          E(Eh)            E(eV)
   0   2.0000     -88.043499     -2395.7854
   1   2.0000     -88.040531     -2395.7047
   2   2.0000     -87.980876     -2394.0813
   3   2.0000     -87.977942     -2394.0015
   4   2.0000     -76.424544     -2079.6176
   5   2.0000     -76.420087     -2079.4963
   6   2.0000     -18.795435      -511.4498
   7   2.0000     -18.792783      -511.3776
   8   2.0000     -18.788910      -511.2722
   9   2.0000     -18.782598      -511.1005
  10   2.0000      -9.957105      -270.9466
  11   2.0000      -9.954807      -270.8841
  12   2.0000      -9.952708      -270.8269
  13   2.0000      -9.951388      -270.7910
  14   2.0000      -9.948094      -270.7014
  15   2.0000      -9.889456      -269.1058
  16   2.0000      -9.885300      -268.9927
  17   2.0000      -9.877359      -268.7766
  18   2.0000      -9.876850      -268.7628
  19   2.0000      -7.688511      -209.2150
  20   2.0000      -7.685175      -209.1243
  21   2.0000      -7.625786      -207.5082
  22   2.0000      -7.623147      -207.4364
  23   2.0000      -6.421966      -174.7506
  24   2.0000      -6.417423      -174.6269
  25   2.0000      -5.716351      -155.5498
  26   2.0000      -5.712938      -155.4570
  27   2.0000      -5.712868      -155.4550
  28   2.0000      -5.709532      -155.3643
  29   2.0000      -5.705686      -155.2596
  30   2.0000      -5.702459      -155.1718
  31   2.0000      -5.654876      -153.8770
  32   2.0000      -5.652242      -153.8053
  33   2.0000      -5.646237      -153.6419
  34   2.0000      -5.645978      -153.6349
  35   2.0000      -5.643633      -153.5711
  36   2.0000      -5.643200      -153.5593
  37   2.0000      -4.644901      -126.3942
  38   2.0000      -4.643717      -126.3620
  39   2.0000      -4.642076      -126.3173
  40   2.0000      -4.640145      -126.2648
  41   2.0000      -4.639273      -126.2410
  42   2.0000      -4.637717      -126.1987
  43   2.0000      -0.989969       -26.9384
  44   2.0000      -0.982635       -26.7389
  45   2.0000      -0.947115       -25.7723
  46   2.0000      -0.936754       -25.4904
  47   2.0000      -0.760776       -20.7018
  48   2.0000      -0.718788       -19.5592
  49   2.0000      -0.709514       -19.3069
  50   2.0000      -0.692241       -18.8368
  51   2.0000      -0.683688       -18.6041
  52   2.0000      -0.675278       -18.3753
  53   2.0000      -0.647959       -17.6319
  54   2.0000      -0.631396       -17.1812
  55   2.0000      -0.594989       -16.1905
  56   2.0000      -0.581057       -15.8114
  57   2.0000      -0.577253       -15.7079
  58   2.0000      -0.564901       -15.3717
  59   2.0000      -0.562393       -15.3035
  60   2.0000      -0.506680       -13.7875
  61   2.0000      -0.498760       -13.5719
  62   2.0000      -0.476584       -12.9685
  63   2.0000      -0.474367       -12.9082
  64   2.0000      -0.452151       -12.3037
  65   2.0000      -0.446440       -12.1483
  66   2.0000      -0.442863       -12.0509
  67   2.0000      -0.431422       -11.7396
  68   2.0000      -0.428101       -11.6492
  69   2.0000      -0.418959       -11.4005
  70   2.0000      -0.408576       -11.1179
  71   2.0000      -0.397455       -10.8153
  72   2.0000      -0.394160       -10.7256
  73   2.0000      -0.380944       -10.3660
  74   2.0000      -0.379753       -10.3336
  75   2.0000      -0.366078        -9.9615
  76   2.0000      -0.362499        -9.8641
  77   2.0000      -0.354959        -9.6589
  78   2.0000      -0.351487        -9.5644
  79   2.0000      -0.349924        -9.5219
  80   2.0000      -0.346122        -9.4185
  81   2.0000      -0.344579        -9.3765
  82   2.0000      -0.340577        -9.2676
  83   2.0000      -0.331308        -9.0153
  84   2.0000      -0.330561        -8.9950
  85   2.0000      -0.316498        -8.6124
  86   2.0000      -0.311985        -8.4895
  87   2.0000      -0.299699        -8.1552
  88   2.0000      -0.293408        -7.9840
  89   2.0000      -0.292748        -7.9661
  90   2.0000      -0.290084        -7.8936
  91   2.0000      -0.272971        -7.4279
  92   2.0000      -0.265880        -7.2350
  93   2.0000      -0.263277        -7.1641
  94   2.0000      -0.256350        -6.9756
  95   2.0000      -0.235136        -6.3984
  96   2.0000      -0.221629        -6.0308
  97   2.0000      -0.210939        -5.7399
  98   2.0000      -0.200029        -5.4431
  99   2.0000      -0.189669        -5.1612
 100   2.0000      -0.181376        -4.9355
 101   0.0000      -0.037823        -1.0292
 102   0.0000      -0.028814        -0.7841
 103   0.0000      -0.008393        -0.2284
 104   0.0000       0.011780         0.3205
 105   0.0000       0.019096         0.5196

MULLIKEN ATOMIC CHARGES
-----------------------
   0 C :   -0.295332
   1 C :   -0.007676
   2 O :   -0.386724
   3 P :    0.611596
   4 S :   -0.286640
   5 O :   -0.346766
   6 C :   -0.013513
   7 C :   -0.289367
   8 S :   -0.130852
   9 C :   -0.343917
  10 S :   -0.104079
  11 P :    0.582129
  12 S :   -0.271222
  13 O :   -0.352800
  14 C :   -0.014025
  15 C :   -0.287937
  16 O :   -0.382549
  17 C :    0.001041
  18 C :   -0.323336
  19 H :    0.129822
  20 H :    0.113936
  21 H :    0.104523
  22 H :    0.101844
  23 H :    0.098569
  24 H :    0.099182
  25 H :    0.105409
  26 H :    0.137424
  27 H :    0.099444
  28 H :    0.118877
  29 H :    0.179842
  30 H :    0.206293
  31 H :    0.103343
  32 H :    0.109236
  33 H :    0.121841
  34 H :    0.109766
  35 H :    0.118830
  36 H :    0.103751
  37 H :    0.113290
  38 H :    0.117124
  39 H :    0.115662
  40 H :    0.133961
Sum of atomic charges:   -0.0000000

LOEWDIN ATOMIC CHARGES
----------------------
   0 C :   -0.365765
   1 C :   -0.117965
   2 O :   -0.249374
   3 P :    0.567324
   4 S :   -0.288681
   5 O :   -0.225882
   6 C :   -0.112686
   7 C :   -0.355019
   8 S :    0.057648
   9 C :   -0.481796
  10 S :    0.073539
  11 P :    0.558881
  12 S :   -0.281649
  13 O :   -0.232139
  14 C :   -0.118325
  15 C :   -0.358092
  16 O :   -0.249253
  17 C :   -0.116957
  18 C :   -0.372183
  19 H :    0.123568
  20 H :    0.126451
  21 H :    0.127340
  22 H :    0.116447
  23 H :    0.101968
  24 H :    0.102226
  25 H :    0.112140
  26 H :    0.128803
  27 H :    0.124712
  28 H :    0.129656
  29 H :    0.136504
  30 H :    0.125230
  31 H :    0.104287
  32 H :    0.114639
  33 H :    0.127245
  34 H :    0.129645
  35 H :    0.126948
  36 H :    0.117833
  37 H :    0.113683
  38 H :    0.122654
  39 H :    0.132491
  40 H :    0.123903

  Mayer bond orders larger than 0.100000
B(  0-C ,  1-C ) :   1.1662 B(  0-C , 19-H ) :   0.9294 B(  0-C , 20-H ) :   0.9474
B(  0-C , 21-H ) :   0.9386 B(  1-C ,  2-O ) :   0.9145 B(  1-C , 22-H ) :   0.9365
B(  1-C , 23-H ) :   0.9132 B(  2-O ,  3-P ) :   1.0693 B(  3-P ,  4-S ) :   1.6524
B(  3-P ,  5-O ) :   1.1436 B(  3-P ,  8-S ) :   0.9427 B(  4-S ,  8-S ) :   0.1173
B(  4-S , 30-H ) :   0.1019 B(  5-O ,  6-C ) :   0.8919 B(  6-C ,  7-C ) :   1.1661
B(  6-C , 24-H ) :   0.9138 B(  6-C , 25-H ) :   0.9292 B(  7-C , 26-H ) :   0.9356
B(  7-C , 27-H ) :   0.9402 B(  7-C , 28-H ) :   0.9475 B(  8-S ,  9-C ) :   0.9952
B(  9-C , 10-S ) :   0.9986 B(  9-C , 29-H ) :   0.9114 B(  9-C , 30-H ) :   0.8431
B( 10-S , 11-P ) :   0.9408 B( 10-S , 12-S ) :   0.1076 B( 11-P , 12-S ) :   1.6780
B( 11-P , 13-O ) :   1.1138 B( 11-P , 16-O ) :   1.0758 B( 13-O , 14-C ) :   0.8868
B( 14-C , 15-C ) :   1.1647 B( 14-C , 31-H ) :   0.9104 B( 14-C , 32-H ) :   0.9282
B( 15-C , 33-H ) :   0.9424 B( 15-C , 34-H ) :   0.9401 B( 15-C , 35-H ) :   0.9474
B( 16-O , 17-C ) :   0.9055 B( 17-C , 18-C ) :   1.1667 B( 17-C , 36-H ) :   0.9340
B( 17-C , 37-H ) :   0.9172 B( 18-C , 38-H ) :   0.9433 B( 18-C , 39-H ) :   0.9370
B( 18-C , 40-H ) :   0.9336

Dispersion correction           -0.067446211
FINAL SINGLE POINT ENERGY     -2929.518114430701

DIPOLE MOMENT
-------------

Method             : SCF
Type of density    : Electron Density
Multiplicity       :   1
Irrep              :   0
Energy             : -2929.6370488337238385 Eh
Relativity type    :
Basis              : AO
                                X                 Y                 Z
Electronic contribution:      2.070088930      -1.090451890     -12.461885057
Nuclear contribution   :     -2.392215320      -0.000545528      14.113839919
                        -----------------------------------------
Total Dipole Moment    :     -0.322126390      -1.090997419       1.651954862
                        -----------------------------------------
Magnitude (a.u.)       :      2.005740672
Magnitude (Debye)      :      5.098187629

Rotational constants in cm-1:             0.012649             0.005435             0.004936
Rotational constants in MHz :           379.193644           162.935712           147.964793

                             ****ORCA TERMINATED NORMALLY****
TOTAL RUN TIME: 0 days 0 hours 0 minutes 21 seconds 509 msec
