                         Program Version 6.0.0  -   RELEASE  -
|  1> ! pbe def2-sv(p) def2/J RI DEFGRID1 loosescf d4 GCP(DFT/SV(P)) printgap
|  2> %output
|  3>     printlevel normal
|  4> end
|  5> * xyz 0 1
|  6> C 4.2765249206 0.0464660136 -2.1981106654
|  7> C 2.8744976772 -0.5067693806 -2.0534590592
|  8> O 2.0972117715 0.3013633793 -1.1339248281
|  9> P 1.9153047587 -0.0154635042 0.3938601272
| 10> S 0.8547563774 1.3484690282 1.3106442188
| 11> O 3.4069342985 -0.1458069332 0.9251881334
| 12> C 3.6837004388 -0.3586159251 2.3251288972
| 13> C 5.1351961203 -0.0026259022 2.5736968333
| 14> S 1.2693059398 -2.0375544751 0.5361770314
| 15> C -0.3542360078 -1.9430383099 -0.267586438
| 16> S -1.6241317976 -1.0927361493 0.7141186026
| 17> P -2.0632136544 0.5590154 -0.5640148751
| 18> S -0.9438519548 0.6988132863 -2.164287465
| 19> O -2.0463234132 1.8742231573 0.2972447996
| 20> C -3.0379708541 2.2645905348 1.2769949173
| 21> C -3.1052541153 1.3033312762 2.4439093798
| 22> O -3.6244863882 0.4215527204 -0.8683442609
| 23> C -4.1549474315 -0.3521031908 -1.9574538736
| 24> C -3.9107858935 -1.8383792072 -1.7923076235
| 25> H 4.8018153464 -0.0083973705 -1.2483399536
| 26> H 4.81151174 -0.5366859351 -2.9410644952
| 27> H 4.2354795373 1.0844632305 -2.5170653548
| 28> H 2.8921051277 -1.5386879425 -1.6915293658
| 29> H 2.3188402994 -0.4484130774 -2.9919813342
| 30> H 3.0079394562 0.2723677944 2.9119333761
| 31> H 3.4834749055 -1.4086826592 2.553495775
| 32> H 5.3643961248 -0.1610576999 3.6222446507
| 33> H 5.7817616868 -0.6286452246 1.9656974285
| 34> H 5.3123575869 1.0392652475 2.3215493956
| 35> H -0.6650780069 -2.9766796067 -0.3956597652
| 36> H -0.2563864494 -1.4262591183 -1.2272541448
| 37> H -2.6938071384 3.2512243816 1.5912134615
| 38> H -4.0030207112 2.3441619053 0.7720857369
| 39> H -2.1136366273 1.1683201553 2.8708918499
| 40> H -3.7695870627 1.7082345745 3.2007942106
| 41> H -3.4840627616 0.335486413 2.1183169499
| 42> H -5.2201102747 -0.1161498569 -1.9436053208
| 43> H -3.705414756 0.01043295 -2.887164222
| 44> H -4.4630663394 -2.3755118828 -2.556695801
| 45> H -2.8502706279 -2.0554585436 -1.9071498292
| 46> H -4.2374056354 -2.170155055 -0.8101566284
| 47> *
| 48>
| 49>                          ****END OF INPUT****

CARTESIAN COORDINATES (ANGSTROEM)
---------------------------------
  C      4.276525    0.046466   -2.198111
  C      2.874498   -0.506769   -2.053459
  O      2.097212    0.301363   -1.133925
  P      1.915305   -0.015464    0.393860
  S      0.854756    1.348469    1.310644
  O      3.406934   -0.145807    0.925188
  C      3.683700   -0.358616    2.325129
  C      5.135196   -0.002626    2.573697
  S      1.269306   -2.037554    0.536177
  C     -0.354236   -1.943038   -0.267586
  S     -1.624132   -1.092736    0.714119
  P     -2.063214    0.559015   -0.564015
  S     -0.943852    0.698813   -2.164287
  O     -2.046323    1.874223    0.297245
  C     -3.037971    2.264591    1.276995
  C     -3.105254    1.303331    2.443909
  O     -3.624486    0.421553   -0.868344
  C     -4.154947   -0.352103   -1.957454
  C     -3.910786   -1.838379   -1.792308
  H      4.801815   -0.008397   -1.248340
  H      4.811512   -0.536686   -2.941064
  H      4.235480    1.084463   -2.517065
  H      2.892105   -1.538688   -1.691529
  H      2.318840   -0.448413   -2.991981
  H      3.007939    0.272368    2.911933
  H      3.483475   -1.408683    2.553496
  H      5.364396   -0.161058    3.622245
  H      5.781762   -0.628645    1.965697
  H      5.312358    1.039265    2.321549
  H     -0.665078   -2.976680   -0.395660
  H     -0.256386   -1.426259   -1.227254
  H     -2.693807    3.251224    1.591213
  H     -4.003021    2.344162    0.772086
  H     -2.113637    1.168320    2.870892
  H     -3.769587    1.708235    3.200794
  H     -3.484063    0.335486    2.118317
  H     -5.220110   -0.116150   -1.943605
  H     -3.705415    0.010433   -2.887164
  H     -4.463066   -2.375512   -2.556696
  H     -2.850271   -2.055459   -1.907150
  H     -4.237406   -2.170155   -0.810157

 Total Charge           Charge          ....    0
 Multiplicity           Mult            ....    1
 Number of Electrons    NEL             ....  202
 Basis Dimension        Dim             ....  334

ORBITAL ENERGIES
----------------

  NO   OCC          E(Eh)            E(eV)
   0   2.0000     -88.037965     -2395.6348
   1   2.0000     -88.035845     -2395.5771
   2   2.0000     -87.980304     -2394.0658
   3   2.0000     -87.972169     -2393.8444
   4   2.0000     -76.421067     -2079.5230
   5   2.0000     -76.417036     -2079.4133
   6   2.0000     -18.787499      -511.2339
   7   2.0000     -18.784842      -511.1615
   8   2.0000     -18.784142      -511.1425
   9   2.0000     -18.782559      -511.0994
  10   2.0000      -9.952403      -270.8186
  11   2.0000      -9.951075      -270.7825
  12   2.0000      -9.950820      -270.7756
  13   2.0000      -9.950690      -270.7720
  14   2.0000      -9.949432      -270.7378
  15   2.0000      -9.887299      -269.0471
  16   2.0000      -9.884819      -268.9796
  17   2.0000      -9.883364      -268.9400
  18   2.0000      -9.881226      -268.8818
  19   2.0000      -7.683137      -209.0688
  20   2.0000      -7.680416      -208.9947
  21   2.0000      -7.625495      -207.5003
  22   2.0000      -7.617235      -207.2755
  23   2.0000      -6.418179      -174.6475
  24   2.0000      -6.414710      -174.5531
  25   2.0000      -5.710740      -155.3971
  26   2.0000      -5.708379      -155.3329
  27   2.0000      -5.707564      -155.3107
  28   2.0000      -5.705014      -155.2413
  29   2.0000      -5.700457      -155.1173
  30   2.0000      -5.697292      -155.0312
  31   2.0000      -5.654388      -153.8637
  32   2.0000      -5.646225      -153.6416
  33   2.0000      -5.646116      -153.6386
  34   2.0000      -5.645592      -153.6244
  35   2.0000      -5.637808      -153.4126
  36   2.0000      -5.637343      -153.3999
  37   2.0000      -4.641068      -126.2899
  38   2.0000      -4.639617      -126.2504
  39   2.0000      -4.638730      -126.2263
  40   2.0000      -4.637725      -126.1989
  41   2.0000      -4.636654      -126.1698
  42   2.0000      -4.634549      -126.1125
  43   2.0000      -0.982489       -26.7349
  44   2.0000      -0.981318       -26.7030
  45   2.0000      -0.940376       -25.5889
  46   2.0000      -0.936350       -25.4794
  47   2.0000      -0.756061       -20.5735
  48   2.0000      -0.716051       -19.4847
  49   2.0000      -0.708194       -19.2709
  50   2.0000      -0.688709       -18.7407
  51   2.0000      -0.687450       -18.7065
  52   2.0000      -0.673388       -18.3238
  53   2.0000      -0.643751       -17.5174
  54   2.0000      -0.629481       -17.1290
  55   2.0000      -0.593962       -16.1625
  56   2.0000      -0.582390       -15.8476
  57   2.0000      -0.575983       -15.6733
  58   2.0000      -0.565957       -15.4005
  59   2.0000      -0.559274       -15.2186
  60   2.0000      -0.503710       -13.7066
  61   2.0000      -0.491157       -13.3651
  62   2.0000      -0.477605       -12.9963
  63   2.0000      -0.464441       -12.6381
  64   2.0000      -0.447617       -12.1803
  65   2.0000      -0.443617       -12.0714
  66   2.0000      -0.440841       -11.9959
  67   2.0000      -0.436634       -11.8814
  68   2.0000      -0.426936       -11.6175
  69   2.0000      -0.422891       -11.5075
  70   2.0000      -0.405045       -11.0218
  71   2.0000      -0.396339       -10.7849
  72   2.0000      -0.385789       -10.4978
  73   2.0000      -0.381961       -10.3937
  74   2.0000      -0.378847       -10.3090
  75   2.0000      -0.365896        -9.9565
  76   2.0000      -0.359550        -9.7839
  77   2.0000      -0.353415        -9.6169
  78   2.0000      -0.352585        -9.5943
  79   2.0000      -0.350842        -9.5469
  80   2.0000      -0.347116        -9.4455
  81   2.0000      -0.340944        -9.2775
  82   2.0000      -0.339836        -9.2474
  83   2.0000      -0.334449        -9.1008
  84   2.0000      -0.334024        -9.0893
  85   2.0000      -0.313818        -8.5394
  86   2.0000      -0.306383        -8.3371
  87   2.0000      -0.296318        -8.0632
  88   2.0000      -0.291791        -7.9400
  89   2.0000      -0.288875        -7.8607
  90   2.0000      -0.285931        -7.7806
  91   2.0000      -0.268576        -7.3083
  92   2.0000      -0.267121        -7.2687
  93   2.0000      -0.257838        -7.0161
  94   2.0000      -0.252170        -6.8619
  95   2.0000      -0.234780        -6.3887
  96   2.0000      -0.215513        -5.8644
  97   2.0000      -0.199422        -5.4265
  98   2.0000      -0.196638        -5.3508
  99   2.0000      -0.185618        -5.0509
 100   2.0000      -0.181660        -4.9432
 101   0.0000      -0.034566        -0.9406
 102   0.0000      -0.028161        -0.7663
 103   0.0000      -0.008533        -0.2322
 104   0.0000       0.006388         0.1738
 105   0.0000       0.018212         0.4956

MULLIKEN ATOMIC CHARGES
-----------------------
   0 C :   -0.289244
   1 C :   -0.014024
   2 O :   -0.340314
   3 P :    0.597502
   4 S :   -0.297893
   5 O :   -0.385343
   6 C :   -0.012265
   7 C :   -0.283028
   8 S :   -0.117890
   9 C :   -0.350102
  10 S :   -0.100750
  11 P :    0.620568
  12 S :   -0.303178
  13 O :   -0.346370
  14 C :    0.006954
  15 C :   -0.335756
  16 O :   -0.389678
  17 C :    0.006382
  18 C :   -0.319013
  19 H :    0.121186
  20 H :    0.106757
  21 H :    0.121944
  22 H :    0.097331
  23 H :    0.110425
  24 H :    0.105032
  25 H :    0.103785
  26 H :    0.111957
  27 H :    0.115456
  28 H :    0.123408
  29 H :    0.180417
  30 H :    0.191624
  31 H :    0.112208
  32 H :    0.107845
  33 H :    0.142431
  34 H :    0.113946
  35 H :    0.124726
  36 H :    0.101766
  37 H :    0.109407
  38 H :    0.111151
  39 H :    0.121863
  40 H :    0.118778
Sum of atomic charges:   -0.0000000

LOEWDIN ATOMIC CHARGES
----------------------
   0 C :   -0.359570
   1 C :   -0.115709
   2 O :   -0.222536
   3 P :    0.558227
   4 S :   -0.304538
   5 O :   -0.252253
   6 C :   -0.121323
   7 C :   -0.350968
   8 S :    0.057247
   9 C :   -0.487644
  10 S :    0.079419
  11 P :    0.576249
  12 S :   -0.293821
  13 O :   -0.223183
  14 C :   -0.106975
  15 C :   -0.371754
  16 O :   -0.256132
  17 C :   -0.115980
  18 C :   -0.370278
  19 H :    0.125163
  20 H :    0.128258
  21 H :    0.129723
  22 H :    0.101389
  23 H :    0.120149
  24 H :    0.109196
  25 H :    0.108573
  26 H :    0.130944
  27 H :    0.125220
  28 H :    0.130198
  29 H :    0.135000
  30 H :    0.118733
  31 H :    0.124235
  32 H :    0.112922
  33 H :    0.133315
  34 H :    0.131797
  35 H :    0.115535
  36 H :    0.117332
  37 H :    0.110751
  38 H :    0.129794
  39 H :    0.119204
  40 H :    0.124091

  Mayer bond orders larger than 0.100000
B(  0-C ,  1-C ) :   1.1670 B(  0-C , 19-H ) :   0.9411 B(  0-C , 20-H ) :   0.9397
B(  0-C , 21-H ) :   0.9471 B(  1-C ,  2-O ) :   0.8955 B(  1-C , 22-H ) :   0.9082
B(  1-C , 23-H ) :   0.9317 B(  2-O ,  3-P ) :   1.1470 B(  3-P ,  4-S ) :   1.6829
B(  3-P ,  5-O ) :   1.0673 B(  3-P ,  8-S ) :   0.9498 B(  4-S ,  8-S ) :   0.1137
B(  5-O ,  6-C ) :   0.9077 B(  6-C ,  7-C ) :   1.1605 B(  6-C , 24-H ) :   0.9061
B(  6-C , 25-H ) :   0.9291 B(  7-C , 26-H ) :   0.9418 B(  7-C , 27-H ) :   0.9510
B(  7-C , 28-H ) :   0.9507 B(  8-S ,  9-C ) :   0.9911 B(  9-C , 10-S ) :   1.0092
B(  9-C , 29-H ) :   0.9084 B(  9-C , 30-H ) :   0.8429 B( 10-S , 11-P ) :   0.9406
B( 10-S , 12-S ) :   0.1175 B( 11-P , 12-S ) :   1.6172 B( 11-P , 13-O ) :   1.1508
B( 11-P , 16-O ) :   1.0545 B( 12-S , 30-H ) :   0.1272 B( 13-O , 14-C ) :   0.9007
B( 14-C , 15-C ) :   1.1702 B( 14-C , 31-H ) :   0.9325 B( 14-C , 32-H ) :   0.9262
B( 15-C , 33-H ) :   0.9383 B( 15-C , 34-H ) :   0.9356 B( 15-C , 35-H ) :   0.9325
B( 16-O , 17-C ) :   0.9202 B( 17-C , 18-C ) :   1.1647 B( 17-C , 36-H ) :   0.9349
B( 17-C , 37-H ) :   0.9168 B( 18-C , 38-H ) :   0.9367 B( 18-C , 39-H ) :   0.9378
B( 18-C , 40-H ) :   0.9417

Dispersion correction           -0.066578381
FINAL SINGLE POINT ENERGY     -2929.510825066233

DIPOLE MOMENT
-------------

Method             : SCF
Type of density    : Electron Density
Multiplicity       :   1
Irrep              :   0
Energy             : -2929.6291684603265821 Eh
Relativity type    :
Basis              : AO
                                X                 Y                 Z
Electronic contribution:     -4.606979183       3.699260242      -0.735641666
Nuclear contribution   :      4.409190227      -4.768152311       0.889444086
                        -----------------------------------------
Total Dipole Moment    :     -0.197788956      -1.068892069       0.153802420
                        -----------------------------------------
Magnitude (a.u.)       :      1.097864249
Magnitude (Debye)      :      2.790549153

Rotational constants in cm-1:             0.012875             0.005151             0.004652
Rotational constants in MHz :           385.991242           154.429134           139.450726

                             ****ORCA TERMINATED NORMALLY****
TOTAL RUN TIME: 0 days 0 hours 0 minutes 21 seconds 3 msec
