                         Program Version 6.0.0  -   RELEASE  -
|  1> ! pbe def2-sv(p) def2/J RI DEFGRID1 loosescf d4 GCP(DFT/SV(P)) printgap
|  2> %output
|  3>     printlevel normal
|  4> end
|  5> * xyz 0 1
|  6> C 1.0132481869 -1.23666329 3.4710151933
|  7> C 1.2823165918 -1.7471818045 2.0709947446
|  8> O 2.1088567221 -0.7711988916 1.4021375356
|  9> P 2.4809385886 -0.9560431577 -0.1262089278
| 10> S 3.1635193506 -2.7129165055 -0.6536449472
| 11> O 3.4920308587 0.2633535548 -0.2030450121
| 12> C 4.504698804 0.3274176647 -1.2224222681
| 13> C 3.9148630023 0.6186456582 -2.5883172794
| 14> S 0.7365682722 -0.3168063414 -1.1776324225
| 15> C 0.4716816681 1.2308704908 -0.2540342699
| 16> S -0.742288763 1.0569193704 1.0729198944
| 17> P -2.4415910415 0.8805346528 -0.2022297011
| 18> S -2.4211267393 1.9892158468 -1.8115476565
| 19> O -3.6758358189 1.0823517397 0.7808884376
| 20> C -4.2367103221 2.3757253582 1.0745325682
| 21> C -3.261909285 3.276509558 1.8043801014
| 22> O -2.5518186772 -0.6553810695 -0.5444179896
| 23> C -2.6655216276 -1.6840576174 0.4711340671
| 24> C -2.0623713689 -2.9588989257 -0.0825345401
| 25> H 0.4806426173 -0.2903629254 3.4225071445
| 26> H 0.4132503982 -1.9647106014 4.0065982876
| 27> H 1.9518815964 -1.0868262426 3.9957420755
| 28> H 0.3520948461 -1.8711194875 1.5079782003
| 29> H 1.8164791336 -2.7021475667 2.0786357324
| 30> H 5.1650560647 1.1288189206 -0.8881261685
| 31> H 5.0486246199 -0.6224543285 -1.2346551035
| 32> H 3.2757315184 -0.2072510523 -2.9006064968
| 33> H 3.323585984 1.5307887308 -2.5639231092
| 34> H 4.7176624389 0.7322633096 -3.3097431752
| 35> H 0.1016666579 1.9635543637 -0.971854417
| 36> H 1.4073475884 1.5473090939 0.2009857558
| 37> H -4.5531323678 2.8343493869 0.1329349777
| 38> H -5.1092790843 2.1445642944 1.6870532585
| 39> H -2.860774517 2.7721224442 2.6798388336
| 40> H -2.4394906598 3.547471557 1.1440554349
| 41> H -3.7752338136 4.1816025876 2.1128302099
| 42> H -2.1461284425 -1.3466782726 1.3737938254
| 43> H -3.7265175624 -1.8073635705 0.6949966968
| 44> H -2.1323875222 -3.743501563 0.6640404159
| 45> H -2.5958193821 -3.263774036 -0.9780602201
| 46> H -1.01773667 -2.8060362202 -0.3470158655
| 47> *
| 48>
| 49>                          ****END OF INPUT****

CARTESIAN COORDINATES (ANGSTROEM)
---------------------------------
  C      1.013248   -1.236663    3.471015
  C      1.282317   -1.747182    2.070995
  O      2.108857   -0.771199    1.402138
  P      2.480939   -0.956043   -0.126209
  S      3.163519   -2.712917   -0.653645
  O      3.492031    0.263354   -0.203045
  C      4.504699    0.327418   -1.222422
  C      3.914863    0.618646   -2.588317
  S      0.736568   -0.316806   -1.177632
  C      0.471682    1.230870   -0.254034
  S     -0.742289    1.056919    1.072920
  P     -2.441591    0.880535   -0.202230
  S     -2.421127    1.989216   -1.811548
  O     -3.675836    1.082352    0.780888
  C     -4.236710    2.375725    1.074533
  C     -3.261909    3.276510    1.804380
  O     -2.551819   -0.655381   -0.544418
  C     -2.665522   -1.684058    0.471134
  C     -2.062371   -2.958899   -0.082535
  H      0.480643   -0.290363    3.422507
  H      0.413250   -1.964711    4.006598
  H      1.951882   -1.086826    3.995742
  H      0.352095   -1.871119    1.507978
  H      1.816479   -2.702148    2.078636
  H      5.165056    1.128819   -0.888126
  H      5.048625   -0.622454   -1.234655
  H      3.275732   -0.207251   -2.900606
  H      3.323586    1.530789   -2.563923
  H      4.717662    0.732263   -3.309743
  H      0.101667    1.963554   -0.971854
  H      1.407348    1.547309    0.200986
  H     -4.553132    2.834349    0.132935
  H     -5.109279    2.144564    1.687053
  H     -2.860775    2.772122    2.679839
  H     -2.439491    3.547472    1.144055
  H     -3.775234    4.181603    2.112830
  H     -2.146128   -1.346678    1.373794
  H     -3.726518   -1.807364    0.694997
  H     -2.132388   -3.743502    0.664040
  H     -2.595819   -3.263774   -0.978060
  H     -1.017737   -2.806036   -0.347016

 Total Charge           Charge          ....    0
 Multiplicity           Mult            ....    1
 Number of Electrons    NEL             ....  202
 Basis Dimension        Dim             ....  334

ORBITAL ENERGIES
----------------

  NO   OCC          E(Eh)            E(eV)
   0   2.0000     -88.049394     -2395.9458
   1   2.0000     -88.043830     -2395.7944
   2   2.0000     -87.992362     -2394.3939
   3   2.0000     -87.989601     -2394.3188
   4   2.0000     -76.431383     -2079.8037
   5   2.0000     -76.427742     -2079.7046
   6   2.0000     -18.800421      -511.5855
   7   2.0000     -18.795416      -511.4493
   8   2.0000     -18.795015      -511.4384
   9   2.0000     -18.793656      -511.4014
  10   2.0000      -9.959283      -271.0059
  11   2.0000      -9.958714      -270.9904
  12   2.0000      -9.957407      -270.9548
  13   2.0000      -9.955302      -270.8975
  14   2.0000      -9.954411      -270.8733
  15   2.0000      -9.889528      -269.1077
  16   2.0000      -9.888831      -269.0888
  17   2.0000      -9.887342      -269.0483
  18   2.0000      -9.884485      -268.9705
  19   2.0000      -7.693933      -209.3626
  20   2.0000      -7.688354      -209.2108
  21   2.0000      -7.637611      -207.8300
  22   2.0000      -7.634773      -207.7527
  23   2.0000      -6.428994      -174.9418
  24   2.0000      -6.425383      -174.8436
  25   2.0000      -5.721568      -155.6918
  26   2.0000      -5.718497      -155.6082
  27   2.0000      -5.716433      -155.5521
  28   2.0000      -5.712695      -155.4503
  29   2.0000      -5.711153      -155.4084
  30   2.0000      -5.705419      -155.2523
  31   2.0000      -5.666557      -154.1948
  32   2.0000      -5.663751      -154.1185
  33   2.0000      -5.658131      -153.9656
  34   2.0000      -5.657814      -153.9570
  35   2.0000      -5.655347      -153.8898
  36   2.0000      -5.654964      -153.8794
  37   2.0000      -4.651882      -126.5842
  38   2.0000      -4.650636      -126.5502
  39   2.0000      -4.649282      -126.5134
  40   2.0000      -4.647697      -126.4703
  41   2.0000      -4.647617      -126.4681
  42   2.0000      -4.645602      -126.4133
  43   2.0000      -0.993443       -27.0330
  44   2.0000      -0.992699       -27.0127
  45   2.0000      -0.949710       -25.8429
  46   2.0000      -0.949113       -25.8267
  47   2.0000      -0.766232       -20.8502
  48   2.0000      -0.725377       -19.7385
  49   2.0000      -0.715675       -19.4745
  50   2.0000      -0.693937       -18.8830
  51   2.0000      -0.686577       -18.6827
  52   2.0000      -0.679798       -18.4982
  53   2.0000      -0.656153       -17.8548
  54   2.0000      -0.641317       -17.4511
  55   2.0000      -0.600911       -16.3516
  56   2.0000      -0.596781       -16.2392
  57   2.0000      -0.575331       -15.6556
  58   2.0000      -0.566348       -15.4111
  59   2.0000      -0.563414       -15.3313
  60   2.0000      -0.510707       -13.8970
  61   2.0000      -0.507642       -13.8136
  62   2.0000      -0.479386       -13.0448
  63   2.0000      -0.473243       -12.8776
  64   2.0000      -0.467952       -12.7336
  65   2.0000      -0.447582       -12.1793
  66   2.0000      -0.443490       -12.0680
  67   2.0000      -0.440554       -11.9881
  68   2.0000      -0.432973       -11.7818
  69   2.0000      -0.429703       -11.6928
  70   2.0000      -0.413135       -11.2420
  71   2.0000      -0.398790       -10.8516
  72   2.0000      -0.395440       -10.7605
  73   2.0000      -0.386158       -10.5079
  74   2.0000      -0.382244       -10.4014
  75   2.0000      -0.370403       -10.0792
  76   2.0000      -0.369433       -10.0528
  77   2.0000      -0.368058       -10.0154
  78   2.0000      -0.358211        -9.7474
  79   2.0000      -0.357713        -9.7339
  80   2.0000      -0.350627        -9.5410
  81   2.0000      -0.346842        -9.4380
  82   2.0000      -0.343687        -9.3522
  83   2.0000      -0.341693        -9.2979
  84   2.0000      -0.333038        -9.0624
  85   2.0000      -0.320234        -8.7140
  86   2.0000      -0.319083        -8.6827
  87   2.0000      -0.307793        -8.3755
  88   2.0000      -0.305794        -8.3211
  89   2.0000      -0.300407        -8.1745
  90   2.0000      -0.293470        -7.9857
  91   2.0000      -0.275283        -7.4908
  92   2.0000      -0.272238        -7.4080
  93   2.0000      -0.268337        -7.3018
  94   2.0000      -0.258205        -7.0261
  95   2.0000      -0.239983        -6.5303
  96   2.0000      -0.222807        -6.0629
  97   2.0000      -0.213137        -5.7997
  98   2.0000      -0.209246        -5.6939
  99   2.0000      -0.207149        -5.6368
 100   2.0000      -0.204708        -5.5704
 101   0.0000      -0.044793        -1.2189
 102   0.0000      -0.031090        -0.8460
 103   0.0000      -0.016742        -0.4556
 104   0.0000       0.002339         0.0636
 105   0.0000       0.006832         0.1859

MULLIKEN ATOMIC CHARGES
-----------------------
   0 C :   -0.281002
   1 C :   -0.032096
   2 O :   -0.368680
   3 P :    0.563233
   4 S :   -0.316991
   5 O :   -0.365229
   6 C :   -0.004353
   7 C :   -0.313259
   8 S :   -0.059127
   9 C :   -0.365971
  10 S :   -0.099573
  11 P :    0.598710
  12 S :   -0.304127
  13 O :   -0.384978
  14 C :   -0.000028
  15 C :   -0.319227
  16 O :   -0.351762
  17 C :   -0.019743
  18 C :   -0.293433
  19 H :    0.120416
  20 H :    0.108057
  21 H :    0.119669
  22 H :    0.116668
  23 H :    0.110785
  24 H :    0.107442
  25 H :    0.114935
  26 H :    0.130357
  27 H :    0.115418
  28 H :    0.114044
  29 H :    0.195265
  30 H :    0.194864
  31 H :    0.114999
  32 H :    0.106765
  33 H :    0.117218
  34 H :    0.128831
  35 H :    0.116102
  36 H :    0.105292
  37 H :    0.109263
  38 H :    0.107189
  39 H :    0.122776
  40 H :    0.141281
Sum of atomic charges:   -0.0000000

LOEWDIN ATOMIC CHARGES
----------------------
   0 C :   -0.352821
   1 C :   -0.123761
   2 O :   -0.242108
   3 P :    0.563839
   4 S :   -0.320523
   5 O :   -0.238606
   6 C :   -0.118397
   7 C :   -0.367022
   8 S :    0.089000
   9 C :   -0.486654
  10 S :    0.086597
  11 P :    0.569060
  12 S :   -0.302300
  13 O :   -0.249762
  14 C :   -0.114878
  15 C :   -0.371270
  16 O :   -0.234859
  17 C :   -0.115409
  18 C :   -0.355644
  19 H :    0.119947
  20 H :    0.129393
  21 H :    0.129192
  22 H :    0.104900
  23 H :    0.113067
  24 H :    0.119429
  25 H :    0.112093
  26 H :    0.123300
  27 H :    0.124461
  28 H :    0.131514
  29 H :    0.128677
  30 H :    0.135282
  31 H :    0.114644
  32 H :    0.119677
  33 H :    0.122946
  34 H :    0.121865
  35 H :    0.132636
  36 H :    0.099158
  37 H :    0.116944
  38 H :    0.128970
  39 H :    0.131792
  40 H :    0.125631

  Mayer bond orders larger than 0.100000
B(  0-C ,  1-C ) :   1.1628 B(  0-C , 19-H ) :   0.9436 B(  0-C , 20-H ) :   0.9417
B(  0-C , 21-H ) :   0.9485 B(  1-C ,  2-O ) :   0.8996 B(  1-C , 22-H ) :   0.9045
B(  1-C , 23-H ) :   0.9204 B(  2-O ,  3-P ) :   1.0993 B(  3-P ,  4-S ) :   1.6553
B(  3-P ,  5-O ) :   1.0944 B(  3-P ,  8-S ) :   0.9802 B(  5-O ,  6-C ) :   0.9063
B(  6-C ,  7-C ) :   1.1629 B(  6-C , 24-H ) :   0.9343 B(  6-C , 25-H ) :   0.9150
B(  7-C , 26-H ) :   0.9361 B(  7-C , 27-H ) :   0.9467 B(  7-C , 28-H ) :   0.9385
B(  8-S ,  9-C ) :   0.9763 B(  9-C , 10-S ) :   1.0009 B(  9-C , 29-H ) :   0.8686
B(  9-C , 30-H ) :   0.8861 B( 10-S , 11-P ) :   0.9424 B( 10-S , 12-S ) :   0.1079
B( 11-P , 12-S ) :   1.6410 B( 11-P , 13-O ) :   1.0896 B( 11-P , 16-O ) :   1.1431
B( 13-O , 14-C ) :   0.9052 B( 14-C , 15-C ) :   1.1661 B( 14-C , 31-H ) :   0.9203
B( 14-C , 32-H ) :   0.9344 B( 15-C , 33-H ) :   0.9434 B( 15-C , 34-H ) :   0.9347
B( 15-C , 35-H ) :   0.9366 B( 16-O , 17-C ) :   0.8886 B( 17-C , 18-C ) :   1.1656
B( 17-C , 36-H ) :   0.9070 B( 17-C , 37-H ) :   0.9305 B( 18-C , 38-H ) :   0.9407
B( 18-C , 39-H ) :   0.9459 B( 18-C , 40-H ) :   0.9318

Dispersion correction           -0.064493364
FINAL SINGLE POINT ENERGY     -2929.524361651416

DIPOLE MOMENT
-------------

Method             : SCF
Type of density    : Electron Density
Multiplicity       :   1
Irrep              :   0
Energy             : -2929.6450689716139095 Eh
Relativity type    :
Basis              : AO
                                X                 Y                 Z
Electronic contribution:      1.772742087      -0.204557619     -10.704412849
Nuclear contribution   :     -2.225883018       0.694949969      12.123773023
                        -----------------------------------------
Total Dipole Moment    :     -0.453140930       0.490392349       1.419360175
                        -----------------------------------------
Magnitude (a.u.)       :      1.568567711
Magnitude (Debye)      :      3.986982271

Rotational constants in cm-1:             0.012200             0.004752             0.004394
Rotational constants in MHz :           365.755436           142.474599           131.728562

                             ****ORCA TERMINATED NORMALLY****
TOTAL RUN TIME: 0 days 0 hours 0 minutes 21 seconds 365 msec
