                         Program Version 6.0.0  -   RELEASE  -
|  1> ! pbe def2-sv(p) def2/J RI DEFGRID1 loosescf d4 GCP(DFT/SV(P)) printgap
|  2> %output
|  3>     printlevel normal
|  4> end
|  5> * xyz 0 1
|  6> C 3.7198901306 -0.8385221877 -2.8067291286
|  7> C 4.5037047345 -1.1924424177 -1.5582512638
|  8> O 3.6535069779 -1.537182927 -0.4506544274
|  9> P 2.7075922545 -0.4806439647 0.2555191955
| 10> S 3.4394666653 1.3298997933 0.4613856686
| 11> O 2.4951228033 -1.3239385856 1.5784289325
| 12> C 2.155308829 -0.7369690109 2.8470370177
| 13> C 0.7646440125 -0.1353696531 2.8520045697
| 14> S 0.8665752067 -0.653980499 -0.8183083984
| 15> C 0.4638938293 1.0951029881 -1.0676681828
| 16> S -0.7448935267 1.7461637276 0.1199142608
| 17> P -2.329159276 0.4612250922 -0.4337557427
| 18> S -2.5294878152 0.0391291531 -2.3288671381
| 19> O -3.6140768062 1.1801766922 0.1486379985
| 20> C -3.7114489589 1.5815937875 1.5396575075
| 21> C -5.1470498205 1.988739868 1.7981025321
| 22> O -2.0303617332 -0.7807282688 0.5351376078
| 23> C -2.375393658 -2.1277205124 0.1673271125
| 24> C -3.8699288224 -2.356429878 0.2673802542
| 25> H 3.1844340739 0.0989563516 -2.6608343401
| 26> H 4.4065852673 -0.7227963169 -3.6393145649
| 27> H 3.0016607443 -1.6212361421 -3.0383519781
| 28> H 5.1435391172 -0.3566756128 -1.2571633297
| 29> H 5.1103104323 -2.0868590622 -1.7071236938
| 30> H 2.2360405612 -1.571369638 3.5455018058
| 31> H 2.9020102256 0.0249594495 3.0913164253
| 32> H 0.5005906067 0.1533746167 3.8642858098
| 33> H 0.737918984 0.7509433084 2.2189675665
| 34> H 0.0367361426 -0.8537133145 2.4813562396
| 35> H 0.0495316027 1.1857515748 -2.0704831997
| 36> H 1.3658588636 1.6981816114 -0.945403482
| 37> H -3.4095276795 0.7398833826 2.1676758497
| 38> H -3.0220359826 2.4148458443 1.69925259
| 39> H -5.8141995597 1.1498323377 1.6212516305
| 40> H -5.2442237702 2.3157482653 2.828253073
| 41> H -5.4268078287 2.8016850467 1.1343317685
| 42> H -2.0207140311 -2.3134660689 -0.8513618267
| 43> H -1.8181291534 -2.7513499944 0.8679016974
| 44> H -4.0963404615 -3.3862486049 0.0101684686
| 45> H -4.2195804734 -2.1514764104 1.2759406244
| 46> H -4.386740662 -1.6957223172 -0.4286458931
| 47> *
| 48>
| 49>                          ****END OF INPUT****

CARTESIAN COORDINATES (ANGSTROEM)
---------------------------------
  C      3.719890   -0.838522   -2.806729
  C      4.503705   -1.192442   -1.558251
  O      3.653507   -1.537183   -0.450654
  P      2.707592   -0.480644    0.255519
  S      3.439467    1.329900    0.461386
  O      2.495123   -1.323939    1.578429
  C      2.155309   -0.736969    2.847037
  C      0.764644   -0.135370    2.852005
  S      0.866575   -0.653980   -0.818308
  C      0.463894    1.095103   -1.067668
  S     -0.744894    1.746164    0.119914
  P     -2.329159    0.461225   -0.433756
  S     -2.529488    0.039129   -2.328867
  O     -3.614077    1.180177    0.148638
  C     -3.711449    1.581594    1.539658
  C     -5.147050    1.988740    1.798103
  O     -2.030362   -0.780728    0.535138
  C     -2.375394   -2.127721    0.167327
  C     -3.869929   -2.356430    0.267380
  H      3.184434    0.098956   -2.660834
  H      4.406585   -0.722796   -3.639315
  H      3.001661   -1.621236   -3.038352
  H      5.143539   -0.356676   -1.257163
  H      5.110310   -2.086859   -1.707124
  H      2.236041   -1.571370    3.545502
  H      2.902010    0.024959    3.091316
  H      0.500591    0.153375    3.864286
  H      0.737919    0.750943    2.218968
  H      0.036736   -0.853713    2.481356
  H      0.049532    1.185752   -2.070483
  H      1.365859    1.698182   -0.945403
  H     -3.409528    0.739883    2.167676
  H     -3.022036    2.414846    1.699253
  H     -5.814200    1.149832    1.621252
  H     -5.244224    2.315748    2.828253
  H     -5.426808    2.801685    1.134332
  H     -2.020714   -2.313466   -0.851362
  H     -1.818129   -2.751350    0.867902
  H     -4.096340   -3.386249    0.010168
  H     -4.219580   -2.151476    1.275941
  H     -4.386741   -1.695722   -0.428646

 Total Charge           Charge          ....    0
 Multiplicity           Mult            ....    1
 Number of Electrons    NEL             ....  202
 Basis Dimension        Dim             ....  334

ORBITAL ENERGIES
----------------

  NO   OCC          E(Eh)            E(eV)
   0   2.0000     -88.042258     -2395.7516
   1   2.0000     -88.042181     -2395.7495
   2   2.0000     -87.995489     -2394.4790
   3   2.0000     -87.990383     -2394.3401
   4   2.0000     -76.428506     -2079.7254
   5   2.0000     -76.427348     -2079.6939
   6   2.0000     -18.798105      -511.5224
   7   2.0000     -18.792513      -511.3703
   8   2.0000     -18.789145      -511.2786
   9   2.0000     -18.788237      -511.2539
  10   2.0000      -9.962988      -271.1067
  11   2.0000      -9.953429      -270.8466
  12   2.0000      -9.952919      -270.8327
  13   2.0000      -9.951650      -270.7982
  14   2.0000      -9.950858      -270.7766
  15   2.0000      -9.895112      -269.2597
  16   2.0000      -9.886413      -269.0230
  17   2.0000      -9.883895      -268.9545
  18   2.0000      -9.877858      -268.7902
  19   2.0000      -7.687358      -209.1836
  20   2.0000      -7.686801      -209.1685
  21   2.0000      -7.640295      -207.9030
  22   2.0000      -7.635602      -207.7753
  23   2.0000      -6.425909      -174.8579
  24   2.0000      -6.425314      -174.8417
  25   2.0000      -5.715096      -155.5157
  26   2.0000      -5.714714      -155.5053
  27   2.0000      -5.712038      -155.4324
  28   2.0000      -5.711333      -155.4133
  29   2.0000      -5.704262      -155.2209
  30   2.0000      -5.703772      -155.2075
  31   2.0000      -5.668996      -154.2612
  32   2.0000      -5.664623      -154.1422
  33   2.0000      -5.660903      -154.0410
  34   2.0000      -5.660725      -154.0361
  35   2.0000      -5.656232      -153.9139
  36   2.0000      -5.655612      -153.8970
  37   2.0000      -4.648161      -126.4829
  38   2.0000      -4.648026      -126.4792
  39   2.0000      -4.647852      -126.4745
  40   2.0000      -4.646710      -126.4434
  41   2.0000      -4.646580      -126.4399
  42   2.0000      -4.645861      -126.4203
  43   2.0000      -0.988319       -26.8935
  44   2.0000      -0.987941       -26.8832
  45   2.0000      -0.947272       -25.7766
  46   2.0000      -0.943720       -25.6799
  47   2.0000      -0.762974       -20.7616
  48   2.0000      -0.724056       -19.7026
  49   2.0000      -0.712592       -19.3906
  50   2.0000      -0.693738       -18.8776
  51   2.0000      -0.681982       -18.5577
  52   2.0000      -0.676768       -18.4158
  53   2.0000      -0.654381       -17.8066
  54   2.0000      -0.642157       -17.4740
  55   2.0000      -0.604537       -16.4503
  56   2.0000      -0.590545       -16.0695
  57   2.0000      -0.577760       -15.7217
  58   2.0000      -0.569262       -15.4904
  59   2.0000      -0.560801       -15.2602
  60   2.0000      -0.508381       -13.8337
  61   2.0000      -0.494280       -13.4500
  62   2.0000      -0.482809       -13.1379
  63   2.0000      -0.464727       -12.6459
  64   2.0000      -0.460321       -12.5260
  65   2.0000      -0.447798       -12.1852
  66   2.0000      -0.442583       -12.0433
  67   2.0000      -0.439747       -11.9661
  68   2.0000      -0.423704       -11.5296
  69   2.0000      -0.419003       -11.4016
  70   2.0000      -0.406670       -11.0661
  71   2.0000      -0.397877       -10.8268
  72   2.0000      -0.396938       -10.8012
  73   2.0000      -0.392222       -10.6729
  74   2.0000      -0.386110       -10.5066
  75   2.0000      -0.377533       -10.2732
  76   2.0000      -0.366701        -9.9784
  77   2.0000      -0.361883        -9.8473
  78   2.0000      -0.353458        -9.6181
  79   2.0000      -0.350880        -9.5479
  80   2.0000      -0.346085        -9.4175
  81   2.0000      -0.345344        -9.3973
  82   2.0000      -0.342750        -9.3267
  83   2.0000      -0.339017        -9.2251
  84   2.0000      -0.336614        -9.1597
  85   2.0000      -0.322951        -8.7880
  86   2.0000      -0.316620        -8.6157
  87   2.0000      -0.309734        -8.4283
  88   2.0000      -0.299790        -8.1577
  89   2.0000      -0.288870        -7.8606
  90   2.0000      -0.284107        -7.7309
  91   2.0000      -0.274219        -7.4619
  92   2.0000      -0.270994        -7.3741
  93   2.0000      -0.266843        -7.2612
  94   2.0000      -0.258401        -7.0314
  95   2.0000      -0.226976        -6.1763
  96   2.0000      -0.219861        -5.9827
  97   2.0000      -0.218072        -5.9340
  98   2.0000      -0.209509        -5.7010
  99   2.0000      -0.207869        -5.6564
 100   2.0000      -0.203849        -5.5470
 101   0.0000      -0.046534        -1.2662
 102   0.0000      -0.030404        -0.8273
 103   0.0000      -0.011285        -0.3071
 104   0.0000       0.004053         0.1103
 105   0.0000       0.008894         0.2420

MULLIKEN ATOMIC CHARGES
-----------------------
   0 C :   -0.314590
   1 C :    0.000767
   2 O :   -0.359476
   3 P :    0.603236
   4 S :   -0.332618
   5 O :   -0.360099
   6 C :    0.005069
   7 C :   -0.337499
   8 S :   -0.083163
   9 C :   -0.355234
  10 S :   -0.097913
  11 P :    0.614245
  12 S :   -0.304982
  13 O :   -0.370568
  14 C :   -0.037246
  15 C :   -0.274760
  16 O :   -0.379846
  17 C :   -0.009754
  18 C :   -0.309948
  19 H :    0.121183
  20 H :    0.112981
  21 H :    0.123320
  22 H :    0.111100
  23 H :    0.107918
  24 H :    0.104139
  25 H :    0.109893
  26 H :    0.104657
  27 H :    0.135690
  28 H :    0.126607
  29 H :    0.195293
  30 H :    0.190877
  31 H :    0.110827
  32 H :    0.117585
  33 H :    0.120501
  34 H :    0.113032
  35 H :    0.125528
  36 H :    0.115781
  37 H :    0.105276
  38 H :    0.114062
  39 H :    0.109381
  40 H :    0.128746
Sum of atomic charges:   -0.0000000

LOEWDIN ATOMIC CHARGES
----------------------
   0 C :   -0.368729
   1 C :   -0.115630
   2 O :   -0.238001
   3 P :    0.574472
   4 S :   -0.313110
   5 O :   -0.237888
   6 C :   -0.113766
   7 C :   -0.376369
   8 S :    0.089952
   9 C :   -0.483116
  10 S :    0.090086
  11 P :    0.567251
  12 S :   -0.301624
  13 O :   -0.245306
  14 C :   -0.118911
  15 C :   -0.348555
  16 O :   -0.250290
  17 C :   -0.123290
  18 C :   -0.365397
  19 H :    0.119291
  20 H :    0.130633
  21 H :    0.126535
  22 H :    0.110983
  23 H :    0.120412
  24 H :    0.118547
  25 H :    0.110931
  26 H :    0.127857
  27 H :    0.112099
  28 H :    0.125053
  29 H :    0.131537
  30 H :    0.125072
  31 H :    0.111129
  32 H :    0.111598
  33 H :    0.129105
  34 H :    0.131611
  35 H :    0.132063
  36 H :    0.109188
  37 H :    0.116872
  38 H :    0.131700
  39 H :    0.121196
  40 H :    0.124806

  Mayer bond orders larger than 0.100000
B(  0-C ,  1-C ) :   1.1635 B(  0-C , 19-H ) :   0.9402 B(  0-C , 20-H ) :   0.9374
B(  0-C , 21-H ) :   0.9422 B(  1-C ,  2-O ) :   0.9156 B(  1-C , 22-H ) :   0.9193
B(  1-C , 23-H ) :   0.9346 B(  2-O ,  3-P ) :   1.1284 B(  3-P ,  4-S ) :   1.5777
B(  3-P ,  5-O ) :   1.1320 B(  3-P ,  8-S ) :   0.9440 B(  4-S ,  8-S ) :   0.1192
B(  4-S , 30-H ) :   0.1015 B(  5-O ,  6-C ) :   0.9120 B(  6-C ,  7-C ) :   1.1596
B(  6-C , 24-H ) :   0.9343 B(  6-C , 25-H ) :   0.9211 B(  7-C , 26-H ) :   0.9368
B(  7-C , 27-H ) :   0.9243 B(  7-C , 28-H ) :   0.9391 B(  8-S ,  9-C ) :   1.0158
B(  9-C , 10-S ) :   1.0055 B(  9-C , 29-H ) :   0.8831 B(  9-C , 30-H ) :   0.8593
B( 10-S , 11-P ) :   0.9676 B( 10-S , 12-S ) :   0.1020 B( 11-P , 12-S ) :   1.6370
B( 11-P , 13-O ) :   1.1229 B( 11-P , 16-O ) :   1.0647 B( 13-O , 14-C ) :   0.8995
B( 14-C , 15-C ) :   1.1655 B( 14-C , 31-H ) :   0.9189 B( 14-C , 32-H ) :   0.9229
B( 15-C , 33-H ) :   0.9509 B( 15-C , 34-H ) :   0.9401 B( 15-C , 35-H ) :   0.9492
B( 16-O , 17-C ) :   0.9055 B( 17-C , 18-C ) :   1.1616 B( 17-C , 36-H ) :   0.9127
B( 17-C , 37-H ) :   0.9320 B( 18-C , 38-H ) :   0.9402 B( 18-C , 39-H ) :   0.9473
B( 18-C , 40-H ) :   0.9349

Dispersion correction           -0.064533602
FINAL SINGLE POINT ENERGY     -2929.522229887425

DIPOLE MOMENT
-------------

Method             : SCF
Type of density    : Electron Density
Multiplicity       :   1
Irrep              :   0
Energy             : -2929.6420651588505280 Eh
Relativity type    :
Basis              : AO
                                X                 Y                 Z
Electronic contribution:     10.079546305       5.337367280      -8.735574980
Nuclear contribution   :    -10.476912730      -5.885206537       9.836768335
                        -----------------------------------------
Total Dipole Moment    :     -0.397366425      -0.547839257       1.101193356
                        -----------------------------------------
Magnitude (a.u.)       :      1.292538097
Magnitude (Debye)      :      3.285370751

Rotational constants in cm-1:             0.012837             0.004585             0.004283
Rotational constants in MHz :           384.831372           137.463318           128.390480

                             ****ORCA TERMINATED NORMALLY****
TOTAL RUN TIME: 0 days 0 hours 0 minutes 21 seconds 140 msec
