                         Program Version 6.0.1  -  RELEASE   -
|  1> ! pbe def2-sv(p) def2/J RI DEFGRID1 loosescf d4 GCP(DFT/SV(P)) printgap
|  2> %output
|  3>     printlevel normal
|  4> end
|  5> * xyz 0 1
|  6> C 4.268075499 -1.8684433545 0.3115777039
|  7> C 2.8613205416 -2.331856139 -0.0307540281
|  8> O 2.0567815446 -1.2403443101 -0.5177845036
|  9> C 2.1487656342 -0.9190108083 -1.8001057942
| 10> O 2.8511745234 -1.5001505619 -2.5948649258
| 11> C 1.2886260965 0.2726927582 -2.1651191874
| 12> C 0.2270742097 0.6024091913 -1.1262672885
| 13> H -0.2939600381 1.5265728955 -1.39984971
| 14> C 0.7968588044 0.7935811583 0.2658303194
| 15> O 0.2611499026 0.3433406619 1.2593315698
| 16> O 1.8753745616 1.5274700529 0.268034943
| 17> C 2.4867789791 1.8095958542 1.5449315973
| 18> C 3.8326001919 2.4564935765 1.2872038316
| 19> S -1.0321232236 -0.7171632266 -1.025050729
| 20> P -2.2520155602 0.141038104 0.4900661047
| 21> S -2.2018440026 2.0888331556 0.6817600228
| 22> O -3.6975165345 -0.3784534674 0.0061165144
| 23> C -4.316817769 0.1377157994 -1.1744487756
| 24> O -2.1535136843 -0.6720079539 1.8403262069
| 25> C -2.2637639262 -2.107038172 1.8843417706
| 26> H 4.7703136673 -1.5102118934 -0.5840646458
| 27> H 4.2345579239 -1.0683522891 1.046638021
| 28> H 4.8283666747 -2.7030348737 0.719900274
| 29> H 2.3306580712 -2.6875798165 0.8531135224
| 30> H 2.8863342132 -3.1091442431 -0.799528299
| 31> H 0.8272104631 0.0723843116 -3.1328578231
| 32> H 1.9548494372 1.1318298277 -2.2777692791
| 33> H 1.8152040537 2.4704315596 2.1016440235
| 34> H 2.5771795595 0.8685547453 2.096137728
| 35> H 3.7008130882 3.3773114966 0.7275460013
| 36> H 4.3081694365 2.6801885556 2.2362333531
| 37> H 4.4694109522 1.7866627342 0.7165788521
| 38> H -5.3460653693 -0.2100482656 -1.1422618858
| 39> H -3.8077142767 -0.2463682057 -2.0583984229
| 40> H -4.2827951977 1.2285667324 -1.1677096525
| 41> H -1.5437360593 -2.5577513966 1.2008359447
| 42> H -3.2746495379 -2.4088067611 1.6153112764
| 43> H -2.0362326148 -2.3757294206 2.9126132994
| 44> *
| 45>
| 46>                          ****END OF INPUT****

CARTESIAN COORDINATES (ANGSTROEM)
---------------------------------
  C      4.268075   -1.868443    0.311578
  C      2.861321   -2.331856   -0.030754
  O      2.056782   -1.240344   -0.517785
  C      2.148766   -0.919011   -1.800106
  O      2.851175   -1.500151   -2.594865
  C      1.288626    0.272693   -2.165119
  C      0.227074    0.602409   -1.126267
  H     -0.293960    1.526573   -1.399850
  C      0.796859    0.793581    0.265830
  O      0.261150    0.343341    1.259332
  O      1.875375    1.527470    0.268035
  C      2.486779    1.809596    1.544932
  C      3.832600    2.456494    1.287204
  S     -1.032123   -0.717163   -1.025051
  P     -2.252016    0.141038    0.490066
  S     -2.201844    2.088833    0.681760
  O     -3.697517   -0.378453    0.006117
  C     -4.316818    0.137716   -1.174449
  O     -2.153514   -0.672008    1.840326
  C     -2.263764   -2.107038    1.884342
  H      4.770314   -1.510212   -0.584065
  H      4.234558   -1.068352    1.046638
  H      4.828367   -2.703035    0.719900
  H      2.330658   -2.687580    0.853114
  H      2.886334   -3.109144   -0.799528
  H      0.827210    0.072384   -3.132858
  H      1.954849    1.131830   -2.277769
  H      1.815204    2.470432    2.101644
  H      2.577180    0.868555    2.096138
  H      3.700813    3.377311    0.727546
  H      4.308169    2.680189    2.236233
  H      4.469411    1.786663    0.716579
  H     -5.346065   -0.210048   -1.142262
  H     -3.807714   -0.246368   -2.058398
  H     -4.282795    1.228567   -1.167710
  H     -1.543736   -2.557751    1.200836
  H     -3.274650   -2.408807    1.615311
  H     -2.036233   -2.375729    2.912613

 Total Charge           Charge          ....    0
 Multiplicity           Mult            ....    1
 Number of Electrons    NEL             ....  174
 Basis Dimension        Dim             ....  316

ORBITAL ENERGIES
----------------

  NO   OCC          E(Eh)            E(eV)
   0   2.0000     -88.036526     -2395.5957
   1   2.0000     -87.971605     -2393.8291
   2   2.0000     -76.418864     -2079.4630
   3   2.0000     -18.814465      -511.9676
   4   2.0000     -18.813813      -511.9499
   5   2.0000     -18.781954      -511.0830
   6   2.0000     -18.779352      -511.0121
   7   2.0000     -18.743397      -510.0338
   8   2.0000     -18.741635      -509.9858
   9   2.0000     -10.019247      -272.6376
  10   2.0000     -10.018139      -272.6074
  11   2.0000      -9.955954      -270.9153
  12   2.0000      -9.955647      -270.9069
  13   2.0000      -9.947556      -270.6868
  14   2.0000      -9.942975      -270.5621
  15   2.0000      -9.934660      -270.3358
  16   2.0000      -9.922250      -269.9982
  17   2.0000      -9.896030      -269.2847
  18   2.0000      -9.895365      -269.2666
  19   2.0000      -7.681220      -209.0166
  20   2.0000      -7.617006      -207.2693
  21   2.0000      -6.414899      -174.5583
  22   2.0000      -5.708961      -155.3487
  23   2.0000      -5.705915      -155.2659
  24   2.0000      -5.698223      -155.0565
  25   2.0000      -5.646251      -153.6423
  26   2.0000      -5.637628      -153.4077
  27   2.0000      -5.636754      -153.3839
  28   2.0000      -4.637648      -126.1968
  29   2.0000      -4.636971      -126.1784
  30   2.0000      -4.635231      -126.1311
  31   2.0000      -1.025547       -27.9066
  32   2.0000      -1.017232       -27.6803
  33   2.0000      -0.976098       -26.5610
  34   2.0000      -0.930588       -25.3226
  35   2.0000      -0.923450       -25.1284
  36   2.0000      -0.921889       -25.0859
  37   2.0000      -0.770174       -20.9575
  38   2.0000      -0.715619       -19.4730
  39   2.0000      -0.713679       -19.4202
  40   2.0000      -0.690482       -18.7890
  41   2.0000      -0.660004       -17.9596
  42   2.0000      -0.627294       -17.0695
  43   2.0000      -0.621302       -16.9065
  44   2.0000      -0.611778       -16.6473
  45   2.0000      -0.603082       -16.4107
  46   2.0000      -0.567239       -15.4354
  47   2.0000      -0.519005       -14.1229
  48   2.0000      -0.509173       -13.8553
  49   2.0000      -0.503820       -13.7096
  50   2.0000      -0.485266       -13.2048
  51   2.0000      -0.468254       -12.7418
  52   2.0000      -0.465621       -12.6702
  53   2.0000      -0.454587       -12.3699
  54   2.0000      -0.435222       -11.8430
  55   2.0000      -0.429503       -11.6874
  56   2.0000      -0.427552       -11.6343
  57   2.0000      -0.423549       -11.5254
  58   2.0000      -0.411389       -11.1945
  59   2.0000      -0.409357       -11.1392
  60   2.0000      -0.404770       -11.0144
  61   2.0000      -0.393032       -10.6949
  62   2.0000      -0.389534       -10.5998
  63   2.0000      -0.385440       -10.4883
  64   2.0000      -0.377684       -10.2773
  65   2.0000      -0.376976       -10.2580
  66   2.0000      -0.367267        -9.9939
  67   2.0000      -0.359987        -9.7957
  68   2.0000      -0.355706        -9.6793
  69   2.0000      -0.345358        -9.3977
  70   2.0000      -0.339566        -9.2401
  71   2.0000      -0.330254        -8.9867
  72   2.0000      -0.324803        -8.8383
  73   2.0000      -0.315511        -8.5855
  74   2.0000      -0.309998        -8.4355
  75   2.0000      -0.300967        -8.1897
  76   2.0000      -0.292233        -7.9521
  77   2.0000      -0.287819        -7.8319
  78   2.0000      -0.273313        -7.4372
  79   2.0000      -0.267359        -7.2752
  80   2.0000      -0.261243        -7.1088
  81   2.0000      -0.250771        -6.8238
  82   2.0000      -0.232378        -6.3233
  83   2.0000      -0.229241        -6.2380
  84   2.0000      -0.217151        -5.9090
  85   2.0000      -0.193720        -5.2714
  86   2.0000      -0.186086        -5.0637
  87   0.0000      -0.041297        -1.1238
  88   0.0000      -0.026883        -0.7315
  89   0.0000      -0.024581        -0.6689
  90   0.0000       0.007842         0.2134
  91   0.0000       0.019808         0.5390

MULLIKEN ATOMIC CHARGES
-----------------------
   0 C :   -0.321825
   1 C :   -0.003509
   2 O :   -0.238043
   3 C :    0.116913
   4 O :   -0.197496
   5 C :   -0.110030
   6 C :   -0.289654
   7 H :    0.151201
   8 C :    0.233037
   9 O :   -0.193635
  10 O :   -0.232779
  11 C :   -0.031805
  12 C :   -0.281973
  13 S :   -0.104155
  14 P :    0.626444
  15 S :   -0.333968
  16 O :   -0.397340
  17 C :   -0.097750
  18 O :   -0.352100
  19 C :   -0.101537
  20 H :    0.130323
  21 H :    0.121547
  22 H :    0.116704
  23 H :    0.109825
  24 H :    0.110901
  25 H :    0.134217
  26 H :    0.142704
  27 H :    0.120481
  28 H :    0.113690
  29 H :    0.119231
  30 H :    0.115276
  31 H :    0.118060
  32 H :    0.120024
  33 H :    0.107889
  34 H :    0.113524
  35 H :    0.114738
  36 H :    0.122068
  37 H :    0.128801
Sum of atomic charges:    0.0000000

LOEWDIN ATOMIC CHARGES
----------------------
   0 C :   -0.357235
   1 C :   -0.107118
   2 O :   -0.048193
   3 C :    0.033477
   4 O :   -0.160621
   5 C :   -0.248383
   6 C :   -0.271071
   7 H :    0.144490
   8 C :    0.006611
   9 O :   -0.160446
  10 O :   -0.049294
  11 C :   -0.103050
  12 C :   -0.351571
  13 S :    0.088829
  14 P :    0.590288
  15 S :   -0.326644
  16 O :   -0.268881
  17 C :   -0.220676
  18 O :   -0.230581
  19 C :   -0.207975
  20 H :    0.131734
  21 H :    0.123014
  22 H :    0.133286
  23 H :    0.121395
  24 H :    0.122593
  25 H :    0.149043
  26 H :    0.157433
  27 H :    0.124939
  28 H :    0.116775
  29 H :    0.129119
  30 H :    0.133116
  31 H :    0.125246
  32 H :    0.119646
  33 H :    0.104240
  34 H :    0.108454
  35 H :    0.108220
  36 H :    0.114734
  37 H :    0.125057

  Mayer bond orders larger than 0.100000
B(  0-C ,  1-C ) :   1.1759 B(  0-C , 20-H ) :   0.9440 B(  0-C , 21-H ) :   0.9429
B(  0-C , 22-H ) :   0.9421 B(  1-C ,  2-O ) :   0.9067 B(  1-C , 23-H ) :   0.9346
B(  1-C , 24-H ) :   0.9148 B(  2-O ,  3-C ) :   1.2120 B(  3-C ,  4-O ) :   2.0561
B(  3-C ,  5-C ) :   1.0082 B(  5-C ,  6-C ) :   1.0600 B(  5-C , 25-H ) :   0.8994
B(  5-C , 26-H ) :   0.8789 B(  6-C ,  7-H ) :   0.8464 B(  6-C ,  8-C ) :   0.8786
B(  6-C , 13-S ) :   1.0363 B(  8-C ,  9-O ) :   2.0004 B(  8-C , 10-O ) :   1.2558
B( 10-O , 11-C ) :   0.8960 B( 11-C , 12-C ) :   1.1552 B( 11-C , 27-H ) :   0.9328
B( 11-C , 28-H ) :   0.9205 B( 12-C , 29-H ) :   0.9474 B( 12-C , 30-H ) :   0.9430
B( 12-C , 31-H ) :   0.9485 B( 13-S , 14-P ) :   0.9410 B( 13-S , 15-S ) :   0.1111
B( 14-P , 15-S ) :   1.6148 B( 14-P , 16-O ) :   1.0466 B( 14-P , 18-O ) :   1.1319
B( 16-O , 17-C ) :   0.9411 B( 17-C , 32-H ) :   0.9588 B( 17-C , 33-H ) :   0.9455
B( 17-C , 34-H ) :   0.9331 B( 18-O , 19-C ) :   0.9244 B( 19-C , 35-H ) :   0.9391
B( 19-C , 36-H ) :   0.9474 B( 19-C , 37-H ) :   0.9601

Dispersion correction           -0.052422941
FINAL SINGLE POINT ENERGY     -1979.014933210746

DIPOLE MOMENT
-------------

Method             : SCF
Type of density    : Electron Density
Multiplicity       :   1
Irrep              :   0
Energy             : -1979.1448293547423418 Eh
Relativity type    :
Basis              : AO
                                X                 Y                 Z
Electronic contribution:    -18.179822639       3.043271226      -2.876139196
Nuclear contribution   :     19.121192612      -3.697787750       3.013493847
                        -----------------------------------------
Total Dipole Moment    :      0.941369973      -0.654516524       0.137354651
                        -----------------------------------------
Magnitude (a.u.)       :      1.154744823
Magnitude (Debye)      :      2.935128081

Rotational constants in cm-1:             0.014783             0.006755             0.006001
Rotational constants in MHz :           443.190532           202.496551           179.905601

                             ****ORCA TERMINATED NORMALLY****
TOTAL RUN TIME: 0 days 0 hours 0 minutes 44 seconds 95 msec
