                         Program Version 6.0.0  -   RELEASE  -
|  1> ! r2scan-3c def2/J RI DEFGRID2 scfconv6 printgap
|  2> %output
|  3>     printlevel normal
|  4> end
|  5> * xyz 0 1
|  6> C 4.6796604101 -1.3882978738 -0.9340943017
|  7> C 4.6326748453 0.0777310512 -0.5550675963
|  8> O 3.4820810221 0.3916160601 0.2484334984
|  9> P 1.9991303345 0.3769953557 -0.3330716788
| 10> S 1.8780874182 1.0619452479 -2.1719337619
| 11> O 1.2425857362 1.1731906508 0.8084871788
| 12> C 1.353484458 2.6091261862 0.907335448
| 13> C 0.5175834476 3.0544003413 2.0878403561
| 14> S 1.3169208565 -1.5674887753 0.0330428374
| 15> C 0.00539468 -1.705524021 -1.2317946102
| 16> S -1.6339733491 -1.9754497224 -0.5263802766
| 17> P -1.9866106602 -0.0176110345 0.2269843163
| 18> S -1.4647919789 1.4707120636 -0.9308216076
| 19> O -1.3029279561 0.0281559969 1.6461909816
| 20> C -1.6551835421 -0.9000984153 2.7087439295
| 21> C -0.3900643346 -1.4924649738 3.2941574443
| 22> O -3.5281178907 -0.0554822998 0.6225124612
| 23> C -4.5841747594 0.2616860309 -0.3013140647
| 24> C -4.6987691952 -0.7526501578 -1.4204796659
| 25> H 3.8676787725 -1.6194739616 -1.6219420134
| 26> H 5.6252711398 -1.6013756652 -1.4220085444
| 27> H 4.5793656672 -2.0109948961 -0.0487601384
| 28> H 4.6088236854 0.7064841462 -1.4510326992
| 29> H 5.4763359771 0.3595142367 0.0763369731
| 30> H 2.4081027464 2.867528136 1.0360248411
| 31> H 0.9875487334 3.0447564592 -0.029176227
| 32> H 0.8896732259 2.5987522644 3.0006461232
| 33> H 0.565752947 4.1351066212 2.1719842118
| 34> H -0.5154128091 2.750159531 1.937145288
| 35> H 0.217837682 -2.582103753 -1.8380628637
| 36> H 0.0090521281 -0.7955151995 -1.8380979751
| 37> H -2.2031562266 -0.3140319033 3.4482426342
| 38> H -2.3085545704 -1.6765468525 2.3028847897
| 39> H -0.6479412583 -2.0836734829 4.1669904088
| 40> H 0.1095189797 -2.1273830989 2.5665466911
| 41> H 0.2911916688 -0.6975916154 3.5852874537
| 42> H -5.4774157704 0.2736131957 0.3248850374
| 43> H -4.399069404 1.2617178725 -0.7053808481
| 44> H -4.7529636408 -1.7599750022 -1.0156236576
| 45> H -5.5942588167 -0.5462985132 -1.9978020232
| 46> H -3.8336874858 -0.6836447337 -2.0779618136
| 47> *
| 48>
| 49>                          ****END OF INPUT****

CARTESIAN COORDINATES (ANGSTROEM)
---------------------------------
  C      4.679660   -1.388298   -0.934094
  C      4.632675    0.077731   -0.555068
  O      3.482081    0.391616    0.248433
  P      1.999130    0.376995   -0.333072
  S      1.878087    1.061945   -2.171934
  O      1.242586    1.173191    0.808487
  C      1.353484    2.609126    0.907335
  C      0.517583    3.054400    2.087840
  S      1.316921   -1.567489    0.033043
  C      0.005395   -1.705524   -1.231795
  S     -1.633973   -1.975450   -0.526380
  P     -1.986611   -0.017611    0.226984
  S     -1.464792    1.470712   -0.930822
  O     -1.302928    0.028156    1.646191
  C     -1.655184   -0.900098    2.708744
  C     -0.390064   -1.492465    3.294157
  O     -3.528118   -0.055482    0.622512
  C     -4.584175    0.261686   -0.301314
  C     -4.698769   -0.752650   -1.420480
  H      3.867679   -1.619474   -1.621942
  H      5.625271   -1.601376   -1.422009
  H      4.579366   -2.010995   -0.048760
  H      4.608824    0.706484   -1.451033
  H      5.476336    0.359514    0.076337
  H      2.408103    2.867528    1.036025
  H      0.987549    3.044756   -0.029176
  H      0.889673    2.598752    3.000646
  H      0.565753    4.135107    2.171984
  H     -0.515413    2.750160    1.937145
  H      0.217838   -2.582104   -1.838063
  H      0.009052   -0.795515   -1.838098
  H     -2.203156   -0.314032    3.448243
  H     -2.308555   -1.676547    2.302885
  H     -0.647941   -2.083673    4.166990
  H      0.109519   -2.127383    2.566547
  H      0.291192   -0.697592    3.585287
  H     -5.477416    0.273613    0.324885
  H     -4.399069    1.261718   -0.705381
  H     -4.752964   -1.759975   -1.015624
  H     -5.594259   -0.546299   -1.997802
  H     -3.833687   -0.683645   -2.077962

 Total Charge           Charge          ....    0
 Multiplicity           Mult            ....    1
 Number of Electrons    NEL             ....  202
 Basis Dimension        Dim             ....  539

ORBITAL ENERGIES
----------------

  NO   OCC          E(Eh)            E(eV)
   0   2.0000     -88.576162     -2410.2799
   1   2.0000     -88.573608     -2410.2104
   2   2.0000     -88.515856     -2408.6389
   3   2.0000     -88.511846     -2408.5298
   4   2.0000     -76.911638     -2092.8721
   5   2.0000     -76.906624     -2092.7356
   6   2.0000     -18.991705      -516.7906
   7   2.0000     -18.987244      -516.6692
   8   2.0000     -18.985787      -516.6295
   9   2.0000     -18.977117      -516.3936
  10   2.0000     -10.106917      -275.0232
  11   2.0000     -10.100328      -274.8439
  12   2.0000     -10.098575      -274.7962
  13   2.0000     -10.092468      -274.6300
  14   2.0000     -10.085039      -274.4279
  15   2.0000     -10.028555      -272.8909
  16   2.0000     -10.026917      -272.8463
  17   2.0000     -10.024712      -272.7863
  18   2.0000     -10.018603      -272.6200
  19   2.0000      -7.870716      -214.1731
  20   2.0000      -7.868486      -214.1124
  21   2.0000      -7.810581      -212.5367
  22   2.0000      -7.806538      -212.4267
  23   2.0000      -6.590052      -179.3244
  24   2.0000      -6.585183      -179.1919
  25   2.0000      -5.817587      -158.3046
  26   2.0000      -5.815306      -158.2425
  27   2.0000      -5.814355      -158.2166
  28   2.0000      -5.812350      -158.1621
  29   2.0000      -5.808004      -158.0438
  30   2.0000      -5.805518      -157.9762
  31   2.0000      -5.758370      -156.6932
  32   2.0000      -5.754188      -156.5794
  33   2.0000      -5.750710      -156.4848
  34   2.0000      -5.750605      -156.4819
  35   2.0000      -5.747021      -156.3844
  36   2.0000      -5.746350      -156.3661
  37   2.0000      -4.735913      -128.8707
  38   2.0000      -4.734970      -128.8451
  39   2.0000      -4.733474      -128.8044
  40   2.0000      -4.730626      -128.7269
  41   2.0000      -4.730000      -128.7099
  42   2.0000      -4.729058      -128.6842
  43   2.0000      -1.049377       -28.5550
  44   2.0000      -1.041559       -28.3423
  45   2.0000      -1.007336       -27.4110
  46   2.0000      -1.000025       -27.2121
  47   2.0000      -0.799736       -21.7619
  48   2.0000      -0.755954       -20.5705
  49   2.0000      -0.745946       -20.2982
  50   2.0000      -0.732413       -19.9300
  51   2.0000      -0.724499       -19.7146
  52   2.0000      -0.709750       -19.3133
  53   2.0000      -0.683019       -18.5859
  54   2.0000      -0.660956       -17.9855
  55   2.0000      -0.628499       -17.1023
  56   2.0000      -0.617562       -16.8047
  57   2.0000      -0.604567       -16.4511
  58   2.0000      -0.596505       -16.2317
  59   2.0000      -0.585789       -15.9401
  60   2.0000      -0.527528       -14.3548
  61   2.0000      -0.520263       -14.1571
  62   2.0000      -0.491870       -13.3845
  63   2.0000      -0.485333       -13.2066
  64   2.0000      -0.468085       -12.7373
  65   2.0000      -0.462725       -12.5914
  66   2.0000      -0.456732       -12.4283
  67   2.0000      -0.451036       -12.2733
  68   2.0000      -0.441890       -12.0244
  69   2.0000      -0.436144       -11.8681
  70   2.0000      -0.429001       -11.6737
  71   2.0000      -0.408199       -11.1077
  72   2.0000      -0.404691       -11.0122
  73   2.0000      -0.398255       -10.8371
  74   2.0000      -0.392955       -10.6929
  75   2.0000      -0.382706       -10.4140
  76   2.0000      -0.378124       -10.2893
  77   2.0000      -0.370107       -10.0711
  78   2.0000      -0.365409        -9.9433
  79   2.0000      -0.363055        -9.8792
  80   2.0000      -0.359189        -9.7740
  81   2.0000      -0.357577        -9.7302
  82   2.0000      -0.351104        -9.5540
  83   2.0000      -0.347539        -9.4570
  84   2.0000      -0.339370        -9.2347
  85   2.0000      -0.326251        -8.8777
  86   2.0000      -0.321237        -8.7413
  87   2.0000      -0.315848        -8.5947
  88   2.0000      -0.307903        -8.3785
  89   2.0000      -0.304596        -8.2885
  90   2.0000      -0.295174        -8.0321
  91   2.0000      -0.282816        -7.6958
  92   2.0000      -0.278056        -7.5663
  93   2.0000      -0.275220        -7.4891
  94   2.0000      -0.271082        -7.3765
  95   2.0000      -0.247305        -6.7295
  96   2.0000      -0.231606        -6.3023
  97   2.0000      -0.226899        -6.1742
  98   2.0000      -0.216217        -5.8836
  99   2.0000      -0.205690        -5.5971
 100   2.0000      -0.196464        -5.3460
 101   0.0000      -0.042369        -1.1529
 102   0.0000      -0.031036        -0.8445
 103   0.0000      -0.011184        -0.3043
 104   0.0000       0.014376         0.3912
 105   0.0000       0.015972         0.4346

MULLIKEN ATOMIC CHARGES
-----------------------
   0 C :   -0.447480
   1 C :   -0.156769
   2 O :   -0.313909
   3 P :    0.654992
   4 S :   -0.466075
   5 O :   -0.249385
   6 C :   -0.127440
   7 C :   -0.470065
   8 S :   -0.122067
   9 C :   -0.227063
  10 S :   -0.141838
  11 P :    0.633142
  12 S :   -0.409243
  13 O :   -0.260570
  14 C :   -0.107588
  15 C :   -0.448541
  16 O :   -0.291954
  17 C :   -0.165035
  18 C :   -0.455791
  19 H :    0.173642
  20 H :    0.146183
  21 H :    0.153118
  22 H :    0.174914
  23 H :    0.145471
  24 H :    0.146467
  25 H :    0.174210
  26 H :    0.144949
  27 H :    0.142228
  28 H :    0.178209
  29 H :    0.197038
  30 H :    0.218622
  31 H :    0.153572
  32 H :    0.150959
  33 H :    0.142218
  34 H :    0.165269
  35 H :    0.159628
  36 H :    0.147006
  37 H :    0.175033
  38 H :    0.152885
  39 H :    0.148654
  40 H :    0.182403
Sum of atomic charges:    0.0000000

LOEWDIN ATOMIC CHARGES
----------------------
   0 C :   -0.407986
   1 C :    0.017196
   2 O :   -0.666328
   3 P :    0.366931
   4 S :   -0.129564
   5 O :   -0.675553
   6 C :    0.017121
   7 C :   -0.390190
   8 S :    0.171808
   9 C :   -0.413194
  10 S :    0.131728
  11 P :    0.378461
  12 S :   -0.062967
  13 O :   -0.652199
  14 C :    0.025705
  15 C :   -0.396614
  16 O :   -0.671611
  17 C :    0.020871
  18 C :   -0.409128
  19 H :    0.164271
  20 H :    0.158230
  21 H :    0.159461
  22 H :    0.180513
  23 H :    0.178042
  24 H :    0.170701
  25 H :    0.182675
  26 H :    0.156467
  27 H :    0.157607
  28 H :    0.169792
  29 H :    0.180871
  30 H :    0.203126
  31 H :    0.176985
  32 H :    0.175904
  33 H :    0.156748
  34 H :    0.164243
  35 H :    0.164582
  36 H :    0.179193
  37 H :    0.180618
  38 H :    0.159124
  39 H :    0.159557
  40 H :    0.166804

  Mayer bond orders larger than 0.100000
B(  0-C ,  1-C ) :   0.9213 B(  0-C , 19-H ) :   0.9650 B(  0-C , 20-H ) :   0.9599
B(  0-C , 21-H ) :   0.9684 B(  1-C ,  2-O ) :   0.8262 B(  1-C , 22-H ) :   0.9665
B(  1-C , 23-H ) :   0.9596 B(  2-O ,  3-P ) :   1.0539 B(  3-P ,  4-S ) :   1.7556
B(  3-P ,  5-O ) :   1.1782 B(  3-P ,  8-S ) :   1.1342 B(  5-O ,  6-C ) :   0.7665
B(  6-C ,  7-C ) :   0.9363 B(  6-C , 24-H ) :   0.9447 B(  6-C , 25-H ) :   0.9493
B(  7-C , 26-H ) :   0.9734 B(  7-C , 27-H ) :   0.9666 B(  7-C , 28-H ) :   0.9687
B(  8-S ,  9-C ) :   0.8852 B(  9-C , 10-S ) :   0.9115 B(  9-C , 29-H ) :   0.9135
B(  9-C , 30-H ) :   0.9052 B( 10-S , 11-P ) :   1.0189 B( 11-P , 12-S ) :   1.8479
B( 11-P , 13-O ) :   1.1158 B( 11-P , 16-O ) :   1.0458 B( 13-O , 14-C ) :   0.7248
B( 14-C , 15-C ) :   0.9605 B( 14-C , 31-H ) :   0.9536 B( 14-C , 32-H ) :   0.9625
B( 15-C , 33-H ) :   0.9657 B( 15-C , 34-H ) :   0.9618 B( 15-C , 35-H ) :   0.9684
B( 16-O , 17-C ) :   0.8266 B( 17-C , 18-C ) :   0.9159 B( 17-C , 36-H ) :   0.9608
B( 17-C , 37-H ) :   0.9690 B( 18-C , 38-H ) :   0.9678 B( 18-C , 39-H ) :   0.9574
B( 18-C , 40-H ) :   0.9630

Dispersion correction           -0.022509879
FINAL SINGLE POINT ENERGY     -2932.459019590788

DIPOLE MOMENT
-------------

Method             : SCF
Type of density    : Electron Density
Multiplicity       :   1
Irrep              :   0
Energy             : -2932.4831645564540850 Eh
Relativity type    :
Basis              : AO
                                X                 Y                 Z
Electronic contribution:     -0.194658592      -0.062047160      -9.090435351
Nuclear contribution   :     -0.105900051      -0.739098301      10.165671668
                        -----------------------------------------
Total Dipole Moment    :     -0.300558642      -0.801145461       1.075236317
                        -----------------------------------------
Magnitude (a.u.)       :      1.374155262
Magnitude (Debye)      :      3.492825097

Rotational constants in cm-1:             0.012226             0.005514             0.005402
Rotational constants in MHz :           366.515992           165.318669           161.944768

                             ****ORCA TERMINATED NORMALLY****
TOTAL RUN TIME: 0 days 0 hours 1 minutes 24 seconds 57 msec
