                         Program Version 6.0.0  -   RELEASE  -
|  1> ! r2scan-3c def2/J RI DEFGRID2 scfconv6 printgap
|  2> %output
|  3>     printlevel normal
|  4> end
|  5> %cpcm
|  6>     smd true
|  7>     smdsolvent "water"
|  8> end
|  9> * xyz 0 1
| 10> C 4.6796604101 -1.3882978738 -0.9340943017
| 11> C 4.6326748453 0.0777310512 -0.5550675963
| 12> O 3.4820810221 0.3916160601 0.2484334984
| 13> P 1.9991303345 0.3769953557 -0.3330716788
| 14> S 1.8780874182 1.0619452479 -2.1719337619
| 15> O 1.2425857362 1.1731906508 0.8084871788
| 16> C 1.353484458 2.6091261862 0.907335448
| 17> C 0.5175834476 3.0544003413 2.0878403561
| 18> S 1.3169208565 -1.5674887753 0.0330428374
| 19> C 0.00539468 -1.705524021 -1.2317946102
| 20> S -1.6339733491 -1.9754497224 -0.5263802766
| 21> P -1.9866106602 -0.0176110345 0.2269843163
| 22> S -1.4647919789 1.4707120636 -0.9308216076
| 23> O -1.3029279561 0.0281559969 1.6461909816
| 24> C -1.6551835421 -0.9000984153 2.7087439295
| 25> C -0.3900643346 -1.4924649738 3.2941574443
| 26> O -3.5281178907 -0.0554822998 0.6225124612
| 27> C -4.5841747594 0.2616860309 -0.3013140647
| 28> C -4.6987691952 -0.7526501578 -1.4204796659
| 29> H 3.8676787725 -1.6194739616 -1.6219420134
| 30> H 5.6252711398 -1.6013756652 -1.4220085444
| 31> H 4.5793656672 -2.0109948961 -0.0487601384
| 32> H 4.6088236854 0.7064841462 -1.4510326992
| 33> H 5.4763359771 0.3595142367 0.0763369731
| 34> H 2.4081027464 2.867528136 1.0360248411
| 35> H 0.9875487334 3.0447564592 -0.029176227
| 36> H 0.8896732259 2.5987522644 3.0006461232
| 37> H 0.565752947 4.1351066212 2.1719842118
| 38> H -0.5154128091 2.750159531 1.937145288
| 39> H 0.217837682 -2.582103753 -1.8380628637
| 40> H 0.0090521281 -0.7955151995 -1.8380979751
| 41> H -2.2031562266 -0.3140319033 3.4482426342
| 42> H -2.3085545704 -1.6765468525 2.3028847897
| 43> H -0.6479412583 -2.0836734829 4.1669904088
| 44> H 0.1095189797 -2.1273830989 2.5665466911
| 45> H 0.2911916688 -0.6975916154 3.5852874537
| 46> H -5.4774157704 0.2736131957 0.3248850374
| 47> H -4.399069404 1.2617178725 -0.7053808481
| 48> H -4.7529636408 -1.7599750022 -1.0156236576
| 49> H -5.5942588167 -0.5462985132 -1.9978020232
| 50> H -3.8336874858 -0.6836447337 -2.0779618136
| 51> *
| 52>
| 53>                          ****END OF INPUT****

CARTESIAN COORDINATES (ANGSTROEM)
---------------------------------
  C      4.679660   -1.388298   -0.934094
  C      4.632675    0.077731   -0.555068
  O      3.482081    0.391616    0.248433
  P      1.999130    0.376995   -0.333072
  S      1.878087    1.061945   -2.171934
  O      1.242586    1.173191    0.808487
  C      1.353484    2.609126    0.907335
  C      0.517583    3.054400    2.087840
  S      1.316921   -1.567489    0.033043
  C      0.005395   -1.705524   -1.231795
  S     -1.633973   -1.975450   -0.526380
  P     -1.986611   -0.017611    0.226984
  S     -1.464792    1.470712   -0.930822
  O     -1.302928    0.028156    1.646191
  C     -1.655184   -0.900098    2.708744
  C     -0.390064   -1.492465    3.294157
  O     -3.528118   -0.055482    0.622512
  C     -4.584175    0.261686   -0.301314
  C     -4.698769   -0.752650   -1.420480
  H      3.867679   -1.619474   -1.621942
  H      5.625271   -1.601376   -1.422009
  H      4.579366   -2.010995   -0.048760
  H      4.608824    0.706484   -1.451033
  H      5.476336    0.359514    0.076337
  H      2.408103    2.867528    1.036025
  H      0.987549    3.044756   -0.029176
  H      0.889673    2.598752    3.000646
  H      0.565753    4.135107    2.171984
  H     -0.515413    2.750160    1.937145
  H      0.217838   -2.582104   -1.838063
  H      0.009052   -0.795515   -1.838098
  H     -2.203156   -0.314032    3.448243
  H     -2.308555   -1.676547    2.302885
  H     -0.647941   -2.083673    4.166990
  H      0.109519   -2.127383    2.566547
  H      0.291192   -0.697592    3.585287
  H     -5.477416    0.273613    0.324885
  H     -4.399069    1.261718   -0.705381
  H     -4.752964   -1.759975   -1.015624
  H     -5.594259   -0.546299   -1.997802
  H     -3.833687   -0.683645   -2.077962

 Total Charge           Charge          ....    0
 Multiplicity           Mult            ....    1
 Number of Electrons    NEL             ....  202
 Basis Dimension        Dim             ....  539

ORBITAL ENERGIES
----------------

  NO   OCC          E(Eh)            E(eV)
   0   2.0000     -88.578325     -2410.3387
   1   2.0000     -88.578114     -2410.3330
   2   2.0000     -88.524595     -2408.8767
   3   2.0000     -88.523392     -2408.8440
   4   2.0000     -76.917210     -2093.0237
   5   2.0000     -76.915829     -2092.9861
   6   2.0000     -18.993282      -516.8335
   7   2.0000     -18.992051      -516.8000
   8   2.0000     -18.991609      -516.7879
   9   2.0000     -18.987045      -516.6638
  10   2.0000     -10.105629      -274.9882
  11   2.0000     -10.091815      -274.6123
  12   2.0000     -10.089385      -274.5461
  13   2.0000     -10.087220      -274.4872
  14   2.0000     -10.086143      -274.4579
  15   2.0000     -10.018215      -272.6095
  16   2.0000     -10.017649      -272.5941
  17   2.0000     -10.017274      -272.5839
  18   2.0000     -10.017266      -272.5837
  19   2.0000      -7.872912      -214.2328
  20   2.0000      -7.872790      -214.2295
  21   2.0000      -7.819662      -212.7838
  22   2.0000      -7.818431      -212.7503
  23   2.0000      -6.595657      -179.4770
  24   2.0000      -6.594434      -179.4437
  25   2.0000      -5.819758      -158.3637
  26   2.0000      -5.819687      -158.3617
  27   2.0000      -5.816771      -158.2824
  28   2.0000      -5.816450      -158.2736
  29   2.0000      -5.810048      -158.0994
  30   2.0000      -5.809941      -158.0965
  31   2.0000      -5.767353      -156.9377
  32   2.0000      -5.765998      -156.9008
  33   2.0000      -5.759850      -156.7335
  34   2.0000      -5.759658      -156.7283
  35   2.0000      -5.758927      -156.7084
  36   2.0000      -5.758245      -156.6898
  37   2.0000      -4.741482      -129.0223
  38   2.0000      -4.740544      -128.9968
  39   2.0000      -4.739850      -128.9779
  40   2.0000      -4.739236      -128.9612
  41   2.0000      -4.739181      -128.9597
  42   2.0000      -4.738384      -128.9380
  43   2.0000      -1.052148       -28.6304
  44   2.0000      -1.049088       -28.5471
  45   2.0000      -1.009742       -27.4765
  46   2.0000      -1.007356       -27.4116
  47   2.0000      -0.801399       -21.8072
  48   2.0000      -0.755584       -20.5605
  49   2.0000      -0.744186       -20.2503
  50   2.0000      -0.724435       -19.7129
  51   2.0000      -0.721584       -19.6353
  52   2.0000      -0.711028       -19.3480
  53   2.0000      -0.688176       -18.7262
  54   2.0000      -0.669040       -18.2055
  55   2.0000      -0.629594       -17.1321
  56   2.0000      -0.615472       -16.7478
  57   2.0000      -0.600139       -16.3306
  58   2.0000      -0.595678       -16.2092
  59   2.0000      -0.585735       -15.9387
  60   2.0000      -0.524647       -14.2764
  61   2.0000      -0.522650       -14.2220
  62   2.0000      -0.489351       -13.3159
  63   2.0000      -0.486913       -13.2496
  64   2.0000      -0.469744       -12.7824
  65   2.0000      -0.464185       -12.6311
  66   2.0000      -0.453305       -12.3350
  67   2.0000      -0.449367       -12.2279
  68   2.0000      -0.439369       -11.9558
  69   2.0000      -0.435863       -11.8604
  70   2.0000      -0.424922       -11.5627
  71   2.0000      -0.412829       -11.2337
  72   2.0000      -0.403738       -10.9863
  73   2.0000      -0.397655       -10.8208
  74   2.0000      -0.390203       -10.6180
  75   2.0000      -0.382057       -10.3963
  76   2.0000      -0.379485       -10.3263
  77   2.0000      -0.365830        -9.9547
  78   2.0000      -0.361609        -9.8399
  79   2.0000      -0.357590        -9.7305
  80   2.0000      -0.356696        -9.7062
  81   2.0000      -0.353597        -9.6219
  82   2.0000      -0.347227        -9.4485
  83   2.0000      -0.344837        -9.3835
  84   2.0000      -0.340248        -9.2586
  85   2.0000      -0.326191        -8.8761
  86   2.0000      -0.321685        -8.7535
  87   2.0000      -0.314116        -8.5475
  88   2.0000      -0.304076        -8.2743
  89   2.0000      -0.303435        -8.2569
  90   2.0000      -0.300941        -8.1890
  91   2.0000      -0.283583        -7.7167
  92   2.0000      -0.280804        -7.6411
  93   2.0000      -0.278271        -7.5721
  94   2.0000      -0.274752        -7.4764
  95   2.0000      -0.250401        -6.8138
  96   2.0000      -0.239523        -6.5177
  97   2.0000      -0.236118        -6.4251
  98   2.0000      -0.226531        -6.1642
  99   2.0000      -0.214485        -5.8364
 100   2.0000      -0.207714        -5.6522
 101   0.0000      -0.046660        -1.2697
 102   0.0000      -0.037123        -1.0102
 103   0.0000      -0.014570        -0.3965
 104   0.0000       0.008589         0.2337
 105   0.0000       0.013095         0.3563

MULLIKEN ATOMIC CHARGES
-----------------------
   0 C :   -0.481762
   1 C :   -0.155332
   2 O :   -0.339651
   3 P :    0.689944
   4 S :   -0.525609
   5 O :   -0.277525
   6 C :   -0.126326
   7 C :   -0.512797
   8 S :   -0.118282
   9 C :   -0.225790
  10 S :   -0.138576
  11 P :    0.650390
  12 S :   -0.462318
  13 O :   -0.292548
  14 C :   -0.100558
  15 C :   -0.497939
  16 O :   -0.314523
  17 C :   -0.160019
  18 C :   -0.491367
  19 H :    0.171225
  20 H :    0.170955
  21 H :    0.166862
  22 H :    0.176729
  23 H :    0.172526
  24 H :    0.170098
  25 H :    0.173623
  26 H :    0.166935
  27 H :    0.169222
  28 H :    0.170130
  29 H :    0.238435
  30 H :    0.211372
  31 H :    0.178847
  32 H :    0.168218
  33 H :    0.168943
  34 H :    0.167359
  35 H :    0.169605
  36 H :    0.174335
  37 H :    0.178079
  38 H :    0.168777
  39 H :    0.172889
  40 H :    0.175429
Sum of atomic charges:   -0.0000000

LOEWDIN ATOMIC CHARGES
----------------------
   0 C :   -0.410458
   1 C :    0.022346
   2 O :   -0.677777
   3 P :    0.371833
   4 S :   -0.167350
   5 O :   -0.694826
   6 C :    0.018726
   7 C :   -0.394309
   8 S :    0.177131
   9 C :   -0.406845
  10 S :    0.141721
  11 P :    0.381187
  12 S :   -0.099738
  13 O :   -0.673747
  14 C :    0.031305
  15 C :   -0.400391
  16 O :   -0.679549
  17 C :    0.025800
  18 C :   -0.411829
  19 H :    0.161070
  20 H :    0.167336
  21 H :    0.163192
  22 H :    0.181004
  23 H :    0.189461
  24 H :    0.179767
  25 H :    0.182000
  26 H :    0.162771
  27 H :    0.167834
  28 H :    0.164448
  29 H :    0.197584
  30 H :    0.200105
  31 H :    0.187260
  32 H :    0.182658
  33 H :    0.167501
  34 H :    0.162350
  35 H :    0.165021
  36 H :    0.190793
  37 H :    0.181058
  38 H :    0.163470
  39 H :    0.168322
  40 H :    0.161766

  Mayer bond orders larger than 0.100000
B(  0-C ,  1-C ) :   0.9113 B(  0-C , 19-H ) :   0.9649 B(  0-C , 20-H ) :   0.9547
B(  0-C , 21-H ) :   0.9659 B(  1-C ,  2-O ) :   0.8135 B(  1-C , 22-H ) :   0.9643
B(  1-C , 23-H ) :   0.9499 B(  2-O ,  3-P ) :   1.0630 B(  3-P ,  4-S ) :   1.7004
B(  3-P ,  5-O ) :   1.1769 B(  3-P ,  8-S ) :   1.1602 B(  5-O ,  6-C ) :   0.7595
B(  6-C ,  7-C ) :   0.9262 B(  6-C , 24-H ) :   0.9366 B(  6-C , 25-H ) :   0.9465
B(  7-C , 26-H ) :   0.9698 B(  7-C , 27-H ) :   0.9606 B(  7-C , 28-H ) :   0.9703
B(  8-S ,  9-C ) :   0.8788 B(  9-C , 10-S ) :   0.9051 B(  9-C , 29-H ) :   0.8972
B(  9-C , 30-H ) :   0.9099 B( 10-S , 11-P ) :   1.0368 B( 11-P , 12-S ) :   1.8170
B( 11-P , 13-O ) :   1.1188 B( 11-P , 16-O ) :   1.0540 B( 13-O , 14-C ) :   0.7148
B( 14-C , 15-C ) :   0.9448 B( 14-C , 31-H ) :   0.9425 B( 14-C , 32-H ) :   0.9544
B( 15-C , 33-H ) :   0.9592 B( 15-C , 34-H ) :   0.9627 B( 15-C , 35-H ) :   0.9690
B( 16-O , 17-C ) :   0.8153 B( 17-C , 18-C ) :   0.9044 B( 17-C , 36-H ) :   0.9507
B( 17-C , 37-H ) :   0.9675 B( 18-C , 38-H ) :   0.9647 B( 18-C , 39-H ) :   0.9522
B( 18-C , 40-H ) :   0.9651

Dispersion correction           -0.022509879
FINAL SINGLE POINT ENERGY     -2932.467851943446

DIPOLE MOMENT
-------------

Method             : SCF
Type of density    : Electron Density
Multiplicity       :   1
Irrep              :   0
Energy             : -2932.4919969091120038 Eh
Relativity type    :
Basis              : AO
                                X                 Y                 Z
Electronic contribution:     -0.272738553      -0.576473598      -8.760942624
Nuclear contribution   :     -0.105900051      -0.739098301      10.165671668
                        -----------------------------------------
Total Dipole Moment    :     -0.378638604      -1.315571900       1.404729044
                        -----------------------------------------
Magnitude (a.u.)       :      1.961468914
Magnitude (Debye)      :      4.985657763

Rotational constants in cm-1:             0.012226             0.005514             0.005402
Rotational constants in MHz :           366.515992           165.318669           161.944768

                             ****ORCA TERMINATED NORMALLY****
TOTAL RUN TIME: 0 days 0 hours 1 minutes 52 seconds 516 msec
