                         Program Version 6.0.0  -   RELEASE  -
|  1> ! pbe def2-sv(p) def2/J RI DEFGRID1 loosescf d4 GCP(DFT/SV(P)) printgap
|  2> %output
|  3>     printlevel normal
|  4> end
|  5> * xyz 0 1
|  6> C 3.5033440189 -2.1062312207 -2.1504453332
|  7> C 4.0241360426 -0.7286706265 -1.7937769177
|  8> O 3.6069875867 -0.3189420425 -0.482280914
|  9> P 2.0917508262 0.043091299 -0.1264680775
| 10> S 1.1846894301 0.9586959613 -1.6123311733
| 11> O 2.3000368508 0.7389538889 1.2745191476
| 12> C 3.1870099958 1.8481904687 1.5228125106
| 13> C 2.6753205298 3.1322747093 0.9015831551
| 14> S 1.1983534891 -1.7368046975 0.5602288976
| 15> C -0.1717295503 -1.8939540104 -0.636623762
| 16> S -1.8162044552 -1.8634134103 0.1169920652
| 17> P -2.0606436829 0.2329510773 0.4231294418
| 18> S -0.7877304378 1.1778406462 1.5716856325
| 19> O -3.5928685251 0.317673002 0.8396882854
| 20> C -4.2305872154 -0.4883074237 1.8484156964
| 21> C -3.4940352862 -0.4680617497 3.1710055281
| 22> O -2.07740405 0.8993301427 -1.001708781
| 23> C -2.9664108911 0.4912609365 -2.0743385621
| 24> C -2.3822978678 1.0053688874 -3.3737429454
| 25> H 3.7480080968 -2.8168746832 -1.3651273753
| 26> H 2.4216031156 -2.0715363882 -2.2713928633
| 27> H 3.9524119844 -2.4291056403 -3.0840675395
| 28> H 3.6726401012 0.0149719182 -2.5164721041
| 29> H 5.1134817499 -0.7104916627 -1.7398135955
| 30> H 3.2034328709 1.9158527424 2.6119987265
| 31> H 4.1813417991 1.5924559886 1.147743449
| 32> H 3.2951069795 3.9632662676 1.2224051675
| 33> H 2.7000419791 3.0675807077 -0.1852646607
| 34> H 1.646907509 3.3061344554 1.2131169143
| 35> H -0.0926209428 -2.8695083124 -1.1089566941
| 36> H -0.0863732553 -1.0811689783 -1.3651861211
| 37> H -5.2245211577 -0.0463262888 1.9380538937
| 38> H -4.3090430152 -1.5093363222 1.4650348462
| 39> H -2.5073780156 -0.916517221 3.0583922939
| 40> H -3.3660348527 0.5544451089 3.5191314093
| 41> H -4.0571723608 -1.0326421789 3.9070272017
| 42> H -3.0438653318 -0.6000512341 -2.0703780571
| 43> H -3.9479026731 0.9240455506 -1.8728230007
| 44> H -1.3717597084 0.6268750658 -3.5075948997
| 45> H -3.0049495704 0.6797356071 -4.2003867895
| 46> H -2.336179808 2.0903938518 -3.3584601711
| 47> *
| 48>
| 49>                          ****END OF INPUT****

CARTESIAN COORDINATES (ANGSTROEM)
---------------------------------
  C      3.503344   -2.106231   -2.150445
  C      4.024136   -0.728671   -1.793777
  O      3.606988   -0.318942   -0.482281
  P      2.091751    0.043091   -0.126468
  S      1.184689    0.958696   -1.612331
  O      2.300037    0.738954    1.274519
  C      3.187010    1.848190    1.522813
  C      2.675321    3.132275    0.901583
  S      1.198353   -1.736805    0.560229
  C     -0.171730   -1.893954   -0.636624
  S     -1.816204   -1.863413    0.116992
  P     -2.060644    0.232951    0.423129
  S     -0.787730    1.177841    1.571686
  O     -3.592869    0.317673    0.839688
  C     -4.230587   -0.488307    1.848416
  C     -3.494035   -0.468062    3.171006
  O     -2.077404    0.899330   -1.001709
  C     -2.966411    0.491261   -2.074339
  C     -2.382298    1.005369   -3.373743
  H      3.748008   -2.816875   -1.365127
  H      2.421603   -2.071536   -2.271393
  H      3.952412   -2.429106   -3.084068
  H      3.672640    0.014972   -2.516472
  H      5.113482   -0.710492   -1.739814
  H      3.203433    1.915853    2.611999
  H      4.181342    1.592456    1.147743
  H      3.295107    3.963266    1.222405
  H      2.700042    3.067581   -0.185265
  H      1.646908    3.306134    1.213117
  H     -0.092621   -2.869508   -1.108957
  H     -0.086373   -1.081169   -1.365186
  H     -5.224521   -0.046326    1.938054
  H     -4.309043   -1.509336    1.465035
  H     -2.507378   -0.916517    3.058392
  H     -3.366035    0.554445    3.519131
  H     -4.057172   -1.032642    3.907027
  H     -3.043865   -0.600051   -2.070378
  H     -3.947903    0.924046   -1.872823
  H     -1.371760    0.626875   -3.507595
  H     -3.004950    0.679736   -4.200387
  H     -2.336180    2.090394   -3.358460

 Total Charge           Charge          ....    0
 Multiplicity           Mult            ....    1
 Number of Electrons    NEL             ....  202
 Basis Dimension        Dim             ....  334

ORBITAL ENERGIES
----------------

  NO   OCC          E(Eh)            E(eV)
   0   2.0000     -88.042320     -2395.7533
   1   2.0000     -88.037150     -2395.6127
   2   2.0000     -87.984041     -2394.1675
   3   2.0000     -87.969929     -2393.7835
   4   2.0000     -76.421900     -2079.5456
   5   2.0000     -76.417489     -2079.4256
   6   2.0000     -18.786341      -511.2023
   7   2.0000     -18.784054      -511.1401
   8   2.0000     -18.783239      -511.1179
   9   2.0000     -18.782487      -511.0975
  10   2.0000      -9.956070      -270.9184
  11   2.0000      -9.955643      -270.9068
  12   2.0000      -9.948762      -270.7196
  13   2.0000      -9.948464      -270.7115
  14   2.0000      -9.947755      -270.6922
  15   2.0000      -9.884478      -268.9703
  16   2.0000      -9.881947      -268.9014
  17   2.0000      -9.879109      -268.8242
  18   2.0000      -9.872960      -268.6569
  19   2.0000      -7.687228      -209.1801
  20   2.0000      -7.682549      -209.0528
  21   2.0000      -7.628842      -207.5914
  22   2.0000      -7.614998      -207.2146
  23   2.0000      -6.419035      -174.6708
  24   2.0000      -6.414747      -174.5541
  25   2.0000      -5.714883      -155.5099
  26   2.0000      -5.711555      -155.4193
  27   2.0000      -5.710436      -155.3889
  28   2.0000      -5.707158      -155.2997
  29   2.0000      -5.704633      -155.2310
  30   2.0000      -5.699341      -155.0869
  31   2.0000      -5.657564      -153.9501
  32   2.0000      -5.649957      -153.7431
  33   2.0000      -5.648672      -153.7082
  34   2.0000      -5.644133      -153.5847
  35   2.0000      -5.635414      -153.3474
  36   2.0000      -5.635140      -153.3400
  37   2.0000      -4.641652      -126.3058
  38   2.0000      -4.640514      -126.2748
  39   2.0000      -4.639778      -126.2548
  40   2.0000      -4.637690      -126.1980
  41   2.0000      -4.636970      -126.1784
  42   2.0000      -4.634470      -126.1103
  43   2.0000      -0.981338       -26.7036
  44   2.0000      -0.981158       -26.6987
  45   2.0000      -0.937842       -25.5200
  46   2.0000      -0.936659       -25.4878
  47   2.0000      -0.759012       -20.6538
  48   2.0000      -0.716753       -19.5039
  49   2.0000      -0.707197       -19.2438
  50   2.0000      -0.685787       -18.6612
  51   2.0000      -0.683832       -18.6080
  52   2.0000      -0.671526       -18.2731
  53   2.0000      -0.646784       -17.5999
  54   2.0000      -0.631048       -17.1717
  55   2.0000      -0.593847       -16.1594
  56   2.0000      -0.581053       -15.8113
  57   2.0000      -0.573115       -15.5952
  58   2.0000      -0.564735       -15.3672
  59   2.0000      -0.560683       -15.2570
  60   2.0000      -0.502317       -13.6687
  61   2.0000      -0.492142       -13.3919
  62   2.0000      -0.469324       -12.7710
  63   2.0000      -0.463417       -12.6102
  64   2.0000      -0.455693       -12.4000
  65   2.0000      -0.448501       -12.2043
  66   2.0000      -0.432543       -11.7701
  67   2.0000      -0.427840       -11.6421
  68   2.0000      -0.426390       -11.6027
  69   2.0000      -0.412444       -11.2232
  70   2.0000      -0.408850       -11.1254
  71   2.0000      -0.402778       -10.9601
  72   2.0000      -0.395108       -10.7514
  73   2.0000      -0.383996       -10.4491
  74   2.0000      -0.379439       -10.3251
  75   2.0000      -0.367186        -9.9916
  76   2.0000      -0.353737        -9.6257
  77   2.0000      -0.350702        -9.5431
  78   2.0000      -0.347050        -9.4437
  79   2.0000      -0.342007        -9.3065
  80   2.0000      -0.340978        -9.2785
  81   2.0000      -0.340500        -9.2655
  82   2.0000      -0.334595        -9.1048
  83   2.0000      -0.332627        -9.0512
  84   2.0000      -0.329720        -8.9721
  85   2.0000      -0.315577        -8.5873
  86   2.0000      -0.308748        -8.4015
  87   2.0000      -0.292663        -7.9638
  88   2.0000      -0.291088        -7.9209
  89   2.0000      -0.288960        -7.8630
  90   2.0000      -0.282416        -7.6849
  91   2.0000      -0.269971        -7.3463
  92   2.0000      -0.266901        -7.2627
  93   2.0000      -0.258871        -7.0442
  94   2.0000      -0.254331        -6.9207
  95   2.0000      -0.237704        -6.4682
  96   2.0000      -0.216098        -5.8803
  97   2.0000      -0.204109        -5.5541
  98   2.0000      -0.200298        -5.4504
  99   2.0000      -0.182413        -4.9637
 100   2.0000      -0.178976        -4.8702
 101   0.0000      -0.035599        -0.9687
 102   0.0000      -0.028211        -0.7677
 103   0.0000      -0.013683        -0.3723
 104   0.0000       0.005957         0.1621
 105   0.0000       0.018033         0.4907

MULLIKEN ATOMIC CHARGES
-----------------------
   0 C :   -0.314904
   1 C :    0.000934
   2 O :   -0.380740
   3 P :    0.632489
   4 S :   -0.316349
   5 O :   -0.357202
   6 C :   -0.001632
   7 C :   -0.315950
   8 S :   -0.064482
   9 C :   -0.366871
  10 S :   -0.122562
  11 P :    0.591874
  12 S :   -0.291305
  13 O :   -0.384246
  14 C :   -0.013140
  15 C :   -0.310967
  16 O :   -0.348322
  17 C :   -0.012678
  18 C :   -0.284405
  19 H :    0.119889
  20 H :    0.116573
  21 H :    0.110973
  22 H :    0.106841
  23 H :    0.101362
  24 H :    0.107770
  25 H :    0.104219
  26 H :    0.105197
  27 H :    0.125498
  28 H :    0.134885
  29 H :    0.182697
  30 H :    0.200813
  31 H :    0.108783
  32 H :    0.112099
  33 H :    0.130804
  34 H :    0.127958
  35 H :    0.109086
  36 H :    0.094012
  37 H :    0.105518
  38 H :    0.128192
  39 H :    0.105809
  40 H :    0.121481
Sum of atomic charges:    0.0000000

LOEWDIN ATOMIC CHARGES
----------------------
   0 C :   -0.367799
   1 C :   -0.121994
   2 O :   -0.251912
   3 P :    0.571689
   4 S :   -0.293339
   5 O :   -0.227958
   6 C :   -0.108952
   7 C :   -0.367362
   8 S :    0.093800
   9 C :   -0.484960
  10 S :    0.061505
  11 P :    0.559291
  12 S :   -0.298938
  13 O :   -0.250054
  14 C :   -0.115016
  15 C :   -0.370724
  16 O :   -0.229437
  17 C :   -0.117514
  18 C :   -0.352179
  19 H :    0.125851
  20 H :    0.117474
  21 H :    0.129675
  22 H :    0.106802
  23 H :    0.116801
  24 H :    0.121164
  25 H :    0.109935
  26 H :    0.126834
  27 H :    0.121403
  28 H :    0.132568
  29 H :    0.135088
  30 H :    0.119219
  31 H :    0.121088
  32 H :    0.106906
  33 H :    0.123320
  34 H :    0.130830
  35 H :    0.128872
  36 H :    0.099205
  37 H :    0.114279
  38 H :    0.126922
  39 H :    0.127342
  40 H :    0.130276

  Mayer bond orders larger than 0.100000
B(  0-C ,  1-C ) :   1.1634 B(  0-C , 19-H ) :   0.9438 B(  0-C , 20-H ) :   0.9383
B(  0-C , 21-H ) :   0.9384 B(  1-C ,  2-O ) :   0.9231 B(  1-C , 22-H ) :   0.9110
B(  1-C , 23-H ) :   0.9332 B(  2-O ,  3-P ) :   1.0701 B(  3-P ,  4-S ) :   1.5849
B(  3-P ,  5-O ) :   1.1431 B(  3-P ,  8-S ) :   0.9651 B(  4-S ,  8-S ) :   0.1223
B(  4-S , 30-H ) :   0.1150 B(  5-O ,  6-C ) :   0.9068 B(  6-C ,  7-C ) :   1.1647
B(  6-C , 24-H ) :   0.9350 B(  6-C , 25-H ) :   0.9270 B(  7-C , 26-H ) :   0.9375
B(  7-C , 27-H ) :   0.9369 B(  7-C , 28-H ) :   0.9411 B(  8-S ,  9-C ) :   1.0065
B(  9-C , 10-S ) :   0.9978 B(  9-C , 29-H ) :   0.9090 B(  9-C , 30-H ) :   0.8417
B( 10-S , 11-P ) :   0.9347 B( 10-S , 12-S ) :   0.1125 B( 11-P , 12-S ) :   1.6890
B( 11-P , 13-O ) :   1.0739 B( 11-P , 16-O ) :   1.1308 B( 13-O , 14-C ) :   0.9190
B( 14-C , 15-C ) :   1.1666 B( 14-C , 31-H ) :   0.9336 B( 14-C , 32-H ) :   0.9264
B( 15-C , 33-H ) :   0.9315 B( 15-C , 34-H ) :   0.9418 B( 15-C , 35-H ) :   0.9342
B( 16-O , 17-C ) :   0.8930 B( 17-C , 18-C ) :   1.1620 B( 17-C , 36-H ) :   0.9114
B( 17-C , 37-H ) :   0.9306 B( 18-C , 38-H ) :   0.9467 B( 18-C , 39-H ) :   0.9410
B( 18-C , 40-H ) :   0.9491

Dispersion correction           -0.067183989
FINAL SINGLE POINT ENERGY     -2929.512052299272

DIPOLE MOMENT
-------------

Method             : SCF
Type of density    : Electron Density
Multiplicity       :   1
Irrep              :   0
Energy             : -2929.6293573494554039 Eh
Relativity type    :
Basis              : AO
                                X                 Y                 Z
Electronic contribution:     -0.666744072      -3.077894325       7.663724687
Nuclear contribution   :      0.532977607       2.308186392      -8.307745698
                        -----------------------------------------
Total Dipole Moment    :     -0.133766465      -0.769707933      -0.644021011
                        -----------------------------------------
Magnitude (a.u.)       :      1.012475596
Magnitude (Debye)      :      2.573508445

Rotational constants in cm-1:             0.011455             0.005482             0.005139
Rotational constants in MHz :           343.405851           164.342513           154.074213

                             ****ORCA TERMINATED NORMALLY****
TOTAL RUN TIME: 0 days 0 hours 0 minutes 20 seconds 842 msec
