                         Program Version 6.0.0  -   RELEASE  -
|  1> ! pbe def2-sv(p) def2/J RI DEFGRID1 loosescf d4 GCP(DFT/SV(P)) printgap
|  2> %output
|  3>     printlevel normal
|  4> end
|  5> * xyz 0 1
|  6> C 3.0049729938 2.5517610573 1.7296964146
|  7> C 1.8586575696 2.0907259587 0.8527586054
|  8> O 1.2720367536 0.8773223827 1.3764930714
|  9> P 1.5926741076 -0.5568720557 0.8100293621
| 10> S 0.7523407378 -1.9612596882 1.8805398159
| 11> O 3.1879853246 -0.514002882 0.8048306833
| 12> C 4.0384728123 -1.5127184762 0.213703796
| 13> C 4.1730786762 -2.7429182559 1.0895204689
| 14> S 1.1926672556 -0.6138973453 -1.2843297184
| 15> C -0.2455385599 -1.7101637477 -1.3091088928
| 16> S -1.795282869 -0.9372529495 -1.8734601637
| 17> P -1.9537378859 0.699485138 -0.5360129111
| 18> S -3.6979530701 1.5831909401 -0.4830634174
| 19> O -0.7320925738 1.6663208368 -0.86063228
| 20> C -0.8292998072 2.6888210421 -1.8706665929
| 21> C -0.7857337212 2.1140734902 -3.2730331864
| 22> O -1.3891894066 0.1416777878 0.8438259932
| 23> C -2.2907587951 -0.2662366189 1.8896540715
| 24> C -2.9612085247 -1.5888071242 1.5773884596
| 25> H 3.3858793953 3.4945906648 1.3496877757
| 26> H 2.6589745943 2.6894842348 2.7505276274
| 27> H 3.8019701036 1.8131219685 1.7272485753
| 28> H 2.1886271049 1.912377708 -0.1743776225
| 29> H 1.0397126574 2.8128854638 0.8545202789
| 30> H 3.6459937743 -1.7737137936 -0.7731089779
| 31> H 4.997956605 -1.0039214077 0.1012765492
| 32> H 4.5164476447 -2.4619365738 2.0817643878
| 33> H 3.2162202438 -3.2507740399 1.1871901443
| 34> H 4.8907383833 -3.422344726 0.6411213778
| 35> H -0.3734228338 -2.1261691525 -0.3061081735
| 36> H -0.0548306506 -2.4946863329 -2.0374900269
| 37> H -1.7565089047 3.2481971008 -1.7076115654
| 38> H 0.0300495786 3.3327050312 -1.6767084566
| 39> H 0.0817892949 1.4682900421 -3.389332096
| 40> H -1.686488056 1.5347333501 -3.4712136786
| 41> H -0.7268631474 2.9279687496 -3.9885220607
| 42> H -1.6549977173 -0.3396112463 2.7734997731
| 43> H -3.036158191 0.5228166149 2.0287234351
| 44> H -2.2163034263 -2.3730316156 1.4629205688
| 45> H -3.6254001663 -1.850857291 2.3945738378
| 46> H -3.5440910809 -1.5036666641 0.6602495072
| 47> *
| 48>
| 49>                          ****END OF INPUT****

CARTESIAN COORDINATES (ANGSTROEM)
---------------------------------
  C      3.004973    2.551761    1.729696
  C      1.858658    2.090726    0.852759
  O      1.272037    0.877322    1.376493
  P      1.592674   -0.556872    0.810029
  S      0.752341   -1.961260    1.880540
  O      3.187985   -0.514003    0.804831
  C      4.038473   -1.512718    0.213704
  C      4.173079   -2.742918    1.089520
  S      1.192667   -0.613897   -1.284330
  C     -0.245539   -1.710164   -1.309109
  S     -1.795283   -0.937253   -1.873460
  P     -1.953738    0.699485   -0.536013
  S     -3.697953    1.583191   -0.483063
  O     -0.732093    1.666321   -0.860632
  C     -0.829300    2.688821   -1.870667
  C     -0.785734    2.114073   -3.273033
  O     -1.389189    0.141678    0.843826
  C     -2.290759   -0.266237    1.889654
  C     -2.961209   -1.588807    1.577388
  H      3.385879    3.494591    1.349688
  H      2.658975    2.689484    2.750528
  H      3.801970    1.813122    1.727249
  H      2.188627    1.912378   -0.174378
  H      1.039713    2.812885    0.854520
  H      3.645994   -1.773714   -0.773109
  H      4.997957   -1.003921    0.101277
  H      4.516448   -2.461937    2.081764
  H      3.216220   -3.250774    1.187190
  H      4.890738   -3.422345    0.641121
  H     -0.373423   -2.126169   -0.306108
  H     -0.054831   -2.494686   -2.037490
  H     -1.756509    3.248197   -1.707612
  H      0.030050    3.332705   -1.676708
  H      0.081789    1.468290   -3.389332
  H     -1.686488    1.534733   -3.471214
  H     -0.726863    2.927969   -3.988522
  H     -1.654998   -0.339611    2.773500
  H     -3.036158    0.522817    2.028723
  H     -2.216303   -2.373032    1.462921
  H     -3.625400   -1.850857    2.394574
  H     -3.544091   -1.503667    0.660250

 Total Charge           Charge          ....    0
 Multiplicity           Mult            ....    1
 Number of Electrons    NEL             ....  202
 Basis Dimension        Dim             ....  334

ORBITAL ENERGIES
----------------

  NO   OCC          E(Eh)            E(eV)
   0   2.0000     -88.049342     -2395.9444
   1   2.0000     -88.043248     -2395.7786
   2   2.0000     -87.990346     -2394.3390
   3   2.0000     -87.987325     -2394.2568
   4   2.0000     -76.431292     -2079.8012
   5   2.0000     -76.424426     -2079.6144
   6   2.0000     -18.799573      -511.5624
   7   2.0000     -18.792000      -511.3563
   8   2.0000     -18.787989      -511.2472
   9   2.0000     -18.785499      -511.1794
  10   2.0000      -9.958422      -270.9824
  11   2.0000      -9.958204      -270.9765
  12   2.0000      -9.956933      -270.9419
  13   2.0000      -9.952438      -270.8196
  14   2.0000      -9.940501      -270.4948
  15   2.0000      -9.887532      -269.0534
  16   2.0000      -9.883658      -268.9480
  17   2.0000      -9.883311      -268.9386
  18   2.0000      -9.872905      -268.6554
  19   2.0000      -7.693785      -209.3585
  20   2.0000      -7.688299      -209.2092
  21   2.0000      -7.635376      -207.7691
  22   2.0000      -7.632482      -207.6904
  23   2.0000      -6.428356      -174.9245
  24   2.0000      -6.422050      -174.7529
  25   2.0000      -5.721582      -155.6922
  26   2.0000      -5.718262      -155.6018
  27   2.0000      -5.716533      -155.5548
  28   2.0000      -5.712469      -155.4442
  29   2.0000      -5.710891      -155.4013
  30   2.0000      -5.705274      -155.2484
  31   2.0000      -5.664374      -154.1355
  32   2.0000      -5.661421      -154.0551
  33   2.0000      -5.656044      -153.9088
  34   2.0000      -5.655280      -153.8880
  35   2.0000      -5.653110      -153.8289
  36   2.0000      -5.652618      -153.8156
  37   2.0000      -4.651073      -126.5621
  38   2.0000      -4.650225      -126.5390
  39   2.0000      -4.648681      -126.4970
  40   2.0000      -4.644323      -126.3784
  41   2.0000      -4.644215      -126.3755
  42   2.0000      -4.642376      -126.3255
  43   2.0000      -0.992175       -26.9985
  44   2.0000      -0.983788       -26.7702
  45   2.0000      -0.946629       -25.7591
  46   2.0000      -0.941305       -25.6142
  47   2.0000      -0.763680       -20.7808
  48   2.0000      -0.722131       -19.6502
  49   2.0000      -0.708911       -19.2904
  50   2.0000      -0.692488       -18.8436
  51   2.0000      -0.681961       -18.5571
  52   2.0000      -0.675430       -18.3794
  53   2.0000      -0.654844       -17.8192
  54   2.0000      -0.640847       -17.4383
  55   2.0000      -0.598368       -16.2824
  56   2.0000      -0.591664       -16.1000
  57   2.0000      -0.576119       -15.6770
  58   2.0000      -0.568630       -15.4732
  59   2.0000      -0.563500       -15.3336
  60   2.0000      -0.508466       -13.8361
  61   2.0000      -0.490823       -13.3560
  62   2.0000      -0.481217       -13.0946
  63   2.0000      -0.463710       -12.6182
  64   2.0000      -0.455732       -12.4011
  65   2.0000      -0.448918       -12.2157
  66   2.0000      -0.442487       -12.0407
  67   2.0000      -0.436553       -11.8792
  68   2.0000      -0.427218       -11.6252
  69   2.0000      -0.418028       -11.3751
  70   2.0000      -0.409059       -11.1311
  71   2.0000      -0.402574       -10.9546
  72   2.0000      -0.394700       -10.7403
  73   2.0000      -0.388951       -10.5839
  74   2.0000      -0.385842       -10.4993
  75   2.0000      -0.370589       -10.0842
  76   2.0000      -0.362707        -9.8698
  77   2.0000      -0.360423        -9.8076
  78   2.0000      -0.354571        -9.6484
  79   2.0000      -0.348945        -9.4953
  80   2.0000      -0.346713        -9.4345
  81   2.0000      -0.343971        -9.3599
  82   2.0000      -0.339849        -9.2478
  83   2.0000      -0.332454        -9.0465
  84   2.0000      -0.329791        -8.9741
  85   2.0000      -0.322325        -8.7709
  86   2.0000      -0.319742        -8.7006
  87   2.0000      -0.299846        -8.1592
  88   2.0000      -0.299055        -8.1377
  89   2.0000      -0.292512        -7.9597
  90   2.0000      -0.287174        -7.8144
  91   2.0000      -0.272865        -7.4250
  92   2.0000      -0.267612        -7.2821
  93   2.0000      -0.264584        -7.1997
  94   2.0000      -0.258346        -7.0300
  95   2.0000      -0.229908        -6.2561
  96   2.0000      -0.224667        -6.1135
  97   2.0000      -0.211606        -5.7581
  98   2.0000      -0.207253        -5.6397
  99   2.0000      -0.201514        -5.4835
 100   2.0000      -0.199900        -5.4396
 101   0.0000      -0.041660        -1.1336
 102   0.0000      -0.033444        -0.9101
 103   0.0000      -0.021785        -0.5928
 104   0.0000      -0.000903        -0.0246
 105   0.0000       0.011013         0.2997

MULLIKEN ATOMIC CHARGES
-----------------------
   0 C :   -0.280197
   1 C :   -0.020450
   2 O :   -0.346904
   3 P :    0.631235
   4 S :   -0.308508
   5 O :   -0.381409
   6 C :   -0.011513
   7 C :   -0.300597
   8 S :   -0.114286
   9 C :   -0.349097
  10 S :   -0.090290
  11 P :    0.596804
  12 S :   -0.318887
  13 O :   -0.358584
  14 C :   -0.007158
  15 C :   -0.311735
  16 O :   -0.366553
  17 C :    0.005036
  18 C :   -0.325436
  19 H :    0.107238
  20 H :    0.120233
  21 H :    0.120039
  22 H :    0.097682
  23 H :    0.118597
  24 H :    0.103335
  25 H :    0.104308
  26 H :    0.117317
  27 H :    0.128494
  28 H :    0.107793
  29 H :    0.207557
  30 H :    0.179384
  31 H :    0.112937
  32 H :    0.097811
  33 H :    0.117594
  34 H :    0.126540
  35 H :    0.110303
  36 H :    0.111300
  37 H :    0.111266
  38 H :    0.128567
  39 H :    0.108722
  40 H :    0.121512
Sum of atomic charges:   -0.0000000

LOEWDIN ATOMIC CHARGES
----------------------
   0 C :   -0.358465
   1 C :   -0.113727
   2 O :   -0.222157
   3 P :    0.579181
   4 S :   -0.283277
   5 O :   -0.246951
   6 C :   -0.120445
   7 C :   -0.366640
   8 S :    0.082396
   9 C :   -0.482712
  10 S :    0.080026
  11 P :    0.566804
  12 S :   -0.314846
  13 O :   -0.238888
  14 C :   -0.119848
  15 C :   -0.369291
  16 O :   -0.235483
  17 C :   -0.123609
  18 C :   -0.369742
  19 H :    0.128428
  20 H :    0.129516
  21 H :    0.125891
  22 H :    0.102966
  23 H :    0.121517
  24 H :    0.101426
  25 H :    0.117627
  26 H :    0.128000
  27 H :    0.122225
  28 H :    0.128828
  29 H :    0.122078
  30 H :    0.138571
  31 H :    0.109855
  32 H :    0.112736
  33 H :    0.120649
  34 H :    0.120990
  35 H :    0.129319
  36 H :    0.118101
  37 H :    0.108236
  38 H :    0.121239
  39 H :    0.130298
  40 H :    0.119176

  Mayer bond orders larger than 0.100000
B(  0-C ,  1-C ) :   1.1583 B(  0-C , 19-H ) :   0.9404 B(  0-C , 20-H ) :   0.9463
B(  0-C , 21-H ) :   0.9416 B(  1-C ,  2-O ) :   0.8928 B(  1-C , 22-H ) :   0.9182
B(  1-C , 23-H ) :   0.9286 B(  2-O ,  3-P ) :   1.1452 B(  3-P ,  4-S ) :   1.6163
B(  3-P ,  5-O ) :   1.0685 B(  3-P ,  8-S ) :   0.9539 B(  4-S ,  8-S ) :   0.1156
B(  4-S , 29-H ) :   0.1118 B(  5-O ,  6-C ) :   0.9145 B(  6-C ,  7-C ) :   1.1652
B(  6-C , 24-H ) :   0.9129 B(  6-C , 25-H ) :   0.9348 B(  7-C , 26-H ) :   0.9474
B(  7-C , 27-H ) :   0.9315 B(  7-C , 28-H ) :   0.9377 B(  8-S ,  9-C ) :   1.0150
B(  9-C , 10-S ) :   0.9795 B(  9-C , 29-H ) :   0.8435 B(  9-C , 30-H ) :   0.9094
B( 10-S , 11-P ) :   0.9710 B( 11-P , 12-S ) :   1.6423 B( 11-P , 13-O ) :   1.0850
B( 11-P , 16-O ) :   1.1014 B( 13-O , 14-C ) :   0.9151 B( 14-C , 15-C ) :   1.1657
B( 14-C , 31-H ) :   0.9132 B( 14-C , 32-H ) :   0.9303 B( 15-C , 33-H ) :   0.9429
B( 15-C , 34-H ) :   0.9377 B( 15-C , 35-H ) :   0.9381 B( 16-O , 17-C ) :   0.8948
B( 17-C , 18-C ) :   1.1690 B( 17-C , 36-H ) :   0.9190 B( 17-C , 37-H ) :   0.9155
B( 18-C , 38-H ) :   0.9354 B( 18-C , 39-H ) :   0.9390 B( 18-C , 40-H ) :   0.9358

Dispersion correction           -0.069722116
FINAL SINGLE POINT ENERGY     -2929.517848453828

DIPOLE MOMENT
-------------

Method             : SCF
Type of density    : Electron Density
Multiplicity       :   1
Irrep              :   0
Energy             : -2929.6372115997769470 Eh
Relativity type    :
Basis              : AO
                                X                 Y                 Z
Electronic contribution:    -13.501351873      -2.659309042      -2.734399589
Nuclear contribution   :     15.263650635       2.921877720       2.173129121
                        -----------------------------------------
Total Dipole Moment    :      1.762298762       0.262568679      -0.561270468
                        -----------------------------------------
Magnitude (a.u.)       :      1.868064179
Magnitude (Debye)      :      4.748241794

Rotational constants in cm-1:             0.011716             0.006002             0.005501
Rotational constants in MHz :           351.234089           179.942019           164.928092

                             ****ORCA TERMINATED NORMALLY****
TOTAL RUN TIME: 0 days 0 hours 0 minutes 22 seconds 624 msec
