                         Program Version 6.0.0  -   RELEASE  -
|  1> ! r2scan-3c def2/J RI DEFGRID2 scfconv6 printgap
|  2> %output
|  3>     printlevel normal
|  4> end
|  5> * xyz 0 1
|  6> C -1.677748464 1.1770209538 -0.0001033602
|  7> C -2.3076781229 -0.0600013822 3.66333e-05
|  8> C -1.5194861075 -1.1984371433 -4.6044e-05
|  9> N -0.1935499932 -1.1626340658 -7.5934e-06
| 10> C 0.3837032106 0.0186138983 -8.99643e-05
| 11> C -0.2934331143 1.2294122837 -0.0001087864
| 12> Cl 2.1194116783 0.0094841156 2.61156e-05
| 13> H -2.2527054777 2.0896377623 0.0003779978
| 14> H -3.3817739687 -0.1391170522 0.0006535063
| 15> H -1.9481113413 -2.1899124095 0.0005593845
| 16> H 0.2463159273 2.1607374022 0.0013081792
| 17> *
| 18>
| 19>                          ****END OF INPUT****

CARTESIAN COORDINATES (ANGSTROEM)
---------------------------------
  C     -1.677748    1.177021   -0.000103
  C     -2.307678   -0.060001    0.000037
  C     -1.519486   -1.198437   -0.000046
  N     -0.193550   -1.162634   -0.000008
  C      0.383703    0.018614   -0.000090
  C     -0.293433    1.229412   -0.000109
  Cl     2.119412    0.009484    0.000026
  H     -2.252705    2.089638    0.000378
  H     -3.381774   -0.139117    0.000654
  H     -1.948111   -2.189912    0.000559
  H      0.246316    2.160737    0.001308

 Total Charge           Charge          ....    0
 Multiplicity           Mult            ....    1
 Number of Electrons    NEL             ....   58
 Basis Dimension        Dim             ....  166

ORBITAL ENERGIES
----------------

  NO   OCC          E(Eh)            E(eV)
   0   2.0000    -101.219209     -2754.3147
   1   2.0000     -14.172316      -385.6483
   2   2.0000     -10.135985      -275.8142
   3   2.0000     -10.085438      -274.4387
   4   2.0000     -10.071919      -274.0709
   5   2.0000     -10.064026      -273.8561
   6   2.0000     -10.057851      -273.6880
   7   2.0000      -9.375521      -255.1209
   8   2.0000      -7.121602      -193.7886
   9   2.0000      -7.112038      -193.5284
  10   2.0000      -7.111148      -193.5042
  11   2.0000      -0.945884       -25.7388
  12   2.0000      -0.827269       -22.5111
  13   2.0000      -0.794008       -21.6061
  14   2.0000      -0.726874       -19.7793
  15   2.0000      -0.624353       -16.9895
  16   2.0000      -0.601845       -16.3770
  17   2.0000      -0.508615       -13.8401
  18   2.0000      -0.477384       -12.9903
  19   2.0000      -0.453441       -12.3388
  20   2.0000      -0.416961       -11.3461
  21   2.0000      -0.408617       -11.1190
  22   2.0000      -0.392339       -10.6761
  23   2.0000      -0.358118        -9.7449
  24   2.0000      -0.321955        -8.7609
  25   2.0000      -0.289244        -7.8707
  26   2.0000      -0.287391        -7.8203
  27   2.0000      -0.248028        -6.7492
  28   2.0000      -0.245550        -6.6818
  29   0.0000      -0.069637        -1.8949
  30   0.0000      -0.055910        -1.5214
  31   0.0000       0.015584         0.4241
  32   0.0000       0.082979         2.2580
  33   0.0000       0.092848         2.5265

MULLIKEN ATOMIC CHARGES
-----------------------
   0 C :   -0.139126
   1 C :   -0.095388
   2 C :   -0.081828
   3 N :   -0.106555
   4 C :    0.138304
   5 C :   -0.213489
   6 Cl:   -0.116303
   7 H :    0.154432
   8 H :    0.153950
   9 H :    0.138323
  10 H :    0.167679
Sum of atomic charges:    0.0000000

LOEWDIN ATOMIC CHARGES
----------------------
   0 C :   -0.113955
   1 C :   -0.150517
   2 C :    0.098184
   3 N :   -0.616290
   4 C :    0.036011
   5 C :   -0.150622
   6 Cl:    0.182716
   7 H :    0.173387
   8 H :    0.172745
   9 H :    0.188864
  10 H :    0.179479

  Mayer bond orders larger than 0.100000
B(  0-C ,  1-C ) :   1.3867 B(  0-C ,  3-N ) :   0.1034 B(  0-C ,  5-C ) :   1.4086
B(  0-C ,  7-H ) :   0.9462 B(  1-C ,  2-C ) :   1.3695 B(  1-C ,  8-H ) :   0.9355
B(  2-C ,  3-N ) :   1.4431 B(  2-C ,  9-H ) :   0.9809 B(  3-N ,  4-C ) :   1.4254
B(  4-C ,  5-C ) :   1.3982 B(  4-C ,  6-Cl) :   1.0340 B(  5-C ,  6-Cl) :   0.1110
B(  5-C , 10-H ) :   0.9215

Dispersion correction           -0.003645098
FINAL SINGLE POINT ENERGY      -707.799031804491

DIPOLE MOMENT
-------------

Method             : SCF
Type of density    : Electron Density
Multiplicity       :   1
Irrep              :   0
Energy             :  -707.8014032485098141 Eh
Relativity type    :
Basis              : AO
                                X                 Y                 Z
Electronic contribution:      8.635513017      -1.111258263      -0.001910115
Nuclear contribution   :     -9.728437926       1.783427704       0.002684741
                        -----------------------------------------
Total Dipole Moment    :     -1.092924909       0.672169441       0.000774626
                        -----------------------------------------
Magnitude (a.u.)       :      1.283081141
Magnitude (Debye)      :      3.261333077

Rotational constants in cm-1:             0.198348             0.054624             0.042829
Rotational constants in MHz :          5946.338273          1637.587268          1283.985180

                             ****ORCA TERMINATED NORMALLY****
TOTAL RUN TIME: 0 days 0 hours 0 minutes 16 seconds 576 msec
