                         Program Version 6.0.0  -   RELEASE  -
|  1> ! r2scan-3c def2/J RI DEFGRID2 scfconv6 printgap
|  2> %output
|  3>     printlevel normal
|  4> end
|  5> %cpcm
|  6>     smd true
|  7>     smdsolvent "water"
|  8> end
|  9> * xyz 0 1
| 10> C -1.677748464 1.1770209538 -0.0001033602
| 11> C -2.3076781229 -0.0600013822 3.66333e-05
| 12> C -1.5194861075 -1.1984371433 -4.6044e-05
| 13> N -0.1935499932 -1.1626340658 -7.5934e-06
| 14> C 0.3837032106 0.0186138983 -8.99643e-05
| 15> C -0.2934331143 1.2294122837 -0.0001087864
| 16> Cl 2.1194116783 0.0094841156 2.61156e-05
| 17> H -2.2527054777 2.0896377623 0.0003779978
| 18> H -3.3817739687 -0.1391170522 0.0006535063
| 19> H -1.9481113413 -2.1899124095 0.0005593845
| 20> H 0.2463159273 2.1607374022 0.0013081792
| 21> *
| 22>
| 23>                          ****END OF INPUT****

CARTESIAN COORDINATES (ANGSTROEM)
---------------------------------
  C     -1.677748    1.177021   -0.000103
  C     -2.307678   -0.060001    0.000037
  C     -1.519486   -1.198437   -0.000046
  N     -0.193550   -1.162634   -0.000008
  C      0.383703    0.018614   -0.000090
  C     -0.293433    1.229412   -0.000109
  Cl     2.119412    0.009484    0.000026
  H     -2.252705    2.089638    0.000378
  H     -3.381774   -0.139117    0.000654
  H     -1.948111   -2.189912    0.000559
  H      0.246316    2.160737    0.001308

 Total Charge           Charge          ....    0
 Multiplicity           Mult            ....    1
 Number of Electrons    NEL             ....   58
 Basis Dimension        Dim             ....  166

ORBITAL ENERGIES
----------------

  NO   OCC          E(Eh)            E(eV)
   0   2.0000    -101.224481     -2754.4582
   1   2.0000     -14.172780      -385.6610
   2   2.0000     -10.132759      -275.7264
   3   2.0000     -10.077038      -274.2101
   4   2.0000     -10.059244      -273.7259
   5   2.0000     -10.054752      -273.6037
   6   2.0000     -10.046219      -273.3715
   7   2.0000      -9.381021      -255.2706
   8   2.0000      -7.126924      -193.9334
   9   2.0000      -7.117547      -193.6783
  10   2.0000      -7.116773      -193.6572
  11   2.0000      -0.944310       -25.6960
  12   2.0000      -0.829736       -22.5783
  13   2.0000      -0.785017       -21.3614
  14   2.0000      -0.720973       -19.6187
  15   2.0000      -0.616434       -16.7740
  16   2.0000      -0.594025       -16.1642
  17   2.0000      -0.499130       -13.5820
  18   2.0000      -0.469880       -12.7861
  19   2.0000      -0.443192       -12.0599
  20   2.0000      -0.409061       -11.1311
  21   2.0000      -0.407253       -11.0819
  22   2.0000      -0.380658       -10.3582
  23   2.0000      -0.347411        -9.4535
  24   2.0000      -0.322991        -8.7890
  25   2.0000      -0.295637        -8.0447
  26   2.0000      -0.282121        -7.6769
  27   2.0000      -0.250433        -6.8146
  28   2.0000      -0.242613        -6.6018
  29   0.0000      -0.063704        -1.7335
  30   0.0000      -0.049988        -1.3602
  31   0.0000       0.013802         0.3756
  32   0.0000       0.088236         2.4010
  33   0.0000       0.099841         2.7168

MULLIKEN ATOMIC CHARGES
-----------------------
   0 C :   -0.154142
   1 C :   -0.122202
   2 C :   -0.094735
   3 N :   -0.143937
   4 C :    0.112233
   5 C :   -0.218506
   6 Cl:   -0.139640
   7 H :    0.195965
   8 H :    0.192769
   9 H :    0.169555
  10 H :    0.202639
Sum of atomic charges:   -0.0000000

LOEWDIN ATOMIC CHARGES
----------------------
   0 C :   -0.102690
   1 C :   -0.141341
   2 C :    0.095476
   3 N :   -0.657123
   4 C :    0.023899
   5 C :   -0.146141
   6 Cl:    0.160982
   7 H :    0.188673
   8 H :    0.186936
   9 H :    0.199783
  10 H :    0.191547

  Mayer bond orders larger than 0.100000
B(  0-C ,  1-C ) :   1.3732 B(  0-C ,  3-N ) :   0.1034 B(  0-C ,  5-C ) :   1.4009
B(  0-C ,  7-H ) :   0.9419 B(  1-C ,  2-C ) :   1.3680 B(  1-C ,  8-H ) :   0.9344
B(  2-C ,  3-N ) :   1.4262 B(  2-C ,  9-H ) :   0.9668 B(  3-N ,  4-C ) :   1.4470
B(  4-C ,  5-C ) :   1.3840 B(  4-C ,  6-Cl) :   1.0335 B(  5-C , 10-H ) :   0.9146

Dispersion correction           -0.003645098
FINAL SINGLE POINT ENERGY      -707.806320483096

DIPOLE MOMENT
-------------

Method             : SCF
Type of density    : Electron Density
Multiplicity       :   1
Irrep              :   0
Energy             :  -707.8086919271145234 Eh
Relativity type    :
Basis              : AO
                                X                 Y                 Z
Electronic contribution:      8.171343539      -0.789205699      -0.001631662
Nuclear contribution   :     -9.728437926       1.783427704       0.002684741
                        -----------------------------------------
Total Dipole Moment    :     -1.557094386       0.994222005       0.001053079
                        -----------------------------------------
Magnitude (a.u.)       :      1.847436449
Magnitude (Debye)      :      4.695810270

Rotational constants in cm-1:             0.198348             0.054624             0.042829
Rotational constants in MHz :          5946.338273          1637.587268          1283.985180

                             ****ORCA TERMINATED NORMALLY****
TOTAL RUN TIME: 0 days 0 hours 0 minutes 21 seconds 242 msec
