                         Program Version 6.0.0  -   RELEASE  -
|  1> ! pbe def2-sv(p) def2/J RI DEFGRID1 loosescf d4 GCP(DFT/SV(P)) printgap
|  2> %output
|  3>     printlevel normal
|  4> end
|  5> * xyz 0 1
|  6> C 5.2627419535 1.2434087416 -0.5418295648
|  7> C 4.7372061276 -0.1238539463 -0.1538889725
|  8> O 3.6245008952 0.0021598271 0.7654537115
|  9> P 2.111985855 -0.1907209821 0.335680555
| 10> S 0.9620773491 -0.0073758157 1.9023440964
| 11> O 2.0044458047 -1.5776214611 -0.4569492828
| 12> C 1.7412066254 -2.8230237207 0.2121470039
| 13> C 2.9191316141 -3.2663562817 1.054603924
| 14> S 1.8839443581 1.1084642674 -1.3072617902
| 15> C 0.1504524242 0.7962996988 -1.7174513225
| 16> S -1.002765291 1.6852321288 -0.6209362761
| 17> P -2.3345180643 0.0765324691 -0.1908944003
| 18> S -1.5843504583 -1.7268697575 -0.2736060446
| 19> O -3.4913228952 0.1896822627 -1.2544852929
| 20> C -4.2804513344 1.3932018348 -1.4356341797
| 21> C -4.6560223501 1.4945401055 -2.899499253
| 22> O -3.0859833154 0.5664606549 1.1176959163
| 23> C -2.5148422835 0.7447254182 2.4263678212
| 24> C -2.4574132272 -0.5643671287 3.1864623651
| 25> H 5.5251445999 1.8057837447 0.3498907589
| 26> H 6.1448840962 1.121078557 -1.1622463939
| 27> H 4.5090947154 1.7974858544 -1.0973754046
| 28> H 5.4871603207 -0.6915475953 0.4000464624
| 29> H 4.4151522274 -0.6905759593 -1.0310324447
| 30> H 0.8419088104 -2.7069337379 0.8248970869
| 31> H 1.529846544 -3.519132462 -0.6007906994
| 32> H 2.6942490626 -4.229035713 1.5026296
| 33> H 3.8125304952 -3.3537197194 0.4414548049
| 34> H 3.098866813 -2.5408043095 1.8478759924
| 35> H -0.0587270842 -0.2745211909 -1.6473423625
| 36> H 0.0177260881 1.1652837154 -2.7308897524
| 37> H -5.1614617283 1.2993394227 -0.7987279503
| 38> H -3.6893366916 2.2551232025 -1.1118320281
| 39> H -5.1879880725 0.5991368215 -3.2079421133
| 40> H -5.2939126704 2.3604791108 -3.0437709478
| 41> H -3.7645526917 1.6000192374 -3.5114643088
| 42> H -1.5165630533 1.1802394527 2.3350732999
| 43> H -3.1860859761 1.457336991 2.9092694931
| 44> H -2.1064155873 -0.3743009846 4.1953317588
| 45> H -3.4408896611 -1.0252830838 3.2208958536
| 46> H -1.7623254782 -1.2470347428 2.7018422675
| 47> *
| 48>
| 49>                          ****END OF INPUT****

CARTESIAN COORDINATES (ANGSTROEM)
---------------------------------
  C      5.262742    1.243409   -0.541830
  C      4.737206   -0.123854   -0.153889
  O      3.624501    0.002160    0.765454
  P      2.111986   -0.190721    0.335681
  S      0.962077   -0.007376    1.902344
  O      2.004446   -1.577621   -0.456949
  C      1.741207   -2.823024    0.212147
  C      2.919132   -3.266356    1.054604
  S      1.883944    1.108464   -1.307262
  C      0.150452    0.796300   -1.717451
  S     -1.002765    1.685232   -0.620936
  P     -2.334518    0.076532   -0.190894
  S     -1.584350   -1.726870   -0.273606
  O     -3.491323    0.189682   -1.254485
  C     -4.280451    1.393202   -1.435634
  C     -4.656022    1.494540   -2.899499
  O     -3.085983    0.566461    1.117696
  C     -2.514842    0.744725    2.426368
  C     -2.457413   -0.564367    3.186462
  H      5.525145    1.805784    0.349891
  H      6.144884    1.121079   -1.162246
  H      4.509095    1.797486   -1.097375
  H      5.487160   -0.691548    0.400046
  H      4.415152   -0.690576   -1.031032
  H      0.841909   -2.706934    0.824897
  H      1.529847   -3.519132   -0.600791
  H      2.694249   -4.229036    1.502630
  H      3.812530   -3.353720    0.441455
  H      3.098867   -2.540804    1.847876
  H     -0.058727   -0.274521   -1.647342
  H      0.017726    1.165284   -2.730890
  H     -5.161462    1.299339   -0.798728
  H     -3.689337    2.255123   -1.111832
  H     -5.187988    0.599137   -3.207942
  H     -5.293913    2.360479   -3.043771
  H     -3.764553    1.600019   -3.511464
  H     -1.516563    1.180239    2.335073
  H     -3.186086    1.457337    2.909269
  H     -2.106416   -0.374301    4.195332
  H     -3.440890   -1.025283    3.220896
  H     -1.762325   -1.247035    2.701842

 Total Charge           Charge          ....    0
 Multiplicity           Mult            ....    1
 Number of Electrons    NEL             ....  202
 Basis Dimension        Dim             ....  334

ORBITAL ENERGIES
----------------

  NO   OCC          E(Eh)            E(eV)
   0   2.0000     -88.043668     -2395.7900
   1   2.0000     -88.038555     -2395.6509
   2   2.0000     -87.980864     -2394.0810
   3   2.0000     -87.978571     -2394.0186
   4   2.0000     -76.422358     -2079.5581
   5   2.0000     -76.422289     -2079.5562
   6   2.0000     -18.793184      -511.3885
   7   2.0000     -18.791132      -511.3327
   8   2.0000     -18.786228      -511.1993
   9   2.0000     -18.784256      -511.1456
  10   2.0000      -9.958604      -270.9874
  11   2.0000      -9.954837      -270.8849
  12   2.0000      -9.952468      -270.8204
  13   2.0000      -9.947369      -270.6817
  14   2.0000      -9.942025      -270.5362
  15   2.0000      -9.890088      -269.1230
  16   2.0000      -9.887591      -269.0550
  17   2.0000      -9.881243      -268.8823
  18   2.0000      -9.872789      -268.6523
  19   2.0000      -7.689112      -209.2314
  20   2.0000      -7.683460      -209.0776
  21   2.0000      -7.626022      -207.5146
  22   2.0000      -7.623781      -207.4536
  23   2.0000      -6.420119      -174.7003
  24   2.0000      -6.419832      -174.6925
  25   2.0000      -5.716965      -155.5665
  26   2.0000      -5.713573      -155.4742
  27   2.0000      -5.711308      -155.4126
  28   2.0000      -5.707974      -155.3219
  29   2.0000      -5.706071      -155.2701
  30   2.0000      -5.700503      -155.1186
  31   2.0000      -5.655017      -153.8808
  32   2.0000      -5.652787      -153.8202
  33   2.0000      -5.646790      -153.6570
  34   2.0000      -5.645854      -153.6315
  35   2.0000      -5.644400      -153.5919
  36   2.0000      -5.643750      -153.5742
  37   2.0000      -4.643115      -126.3456
  38   2.0000      -4.642597      -126.3315
  39   2.0000      -4.641682      -126.3066
  40   2.0000      -4.641656      -126.3059
  41   2.0000      -4.640433      -126.2726
  42   2.0000      -4.640075      -126.2629
  43   2.0000      -0.984711       -26.7953
  44   2.0000      -0.982896       -26.7460
  45   2.0000      -0.941858       -25.6293
  46   2.0000      -0.939697       -25.5705
  47   2.0000      -0.760988       -20.7075
  48   2.0000      -0.720789       -19.6137
  49   2.0000      -0.710595       -19.3363
  50   2.0000      -0.690243       -18.7825
  51   2.0000      -0.684735       -18.6326
  52   2.0000      -0.671509       -18.2727
  53   2.0000      -0.649381       -17.6705
  54   2.0000      -0.634147       -17.2560
  55   2.0000      -0.589136       -16.0312
  56   2.0000      -0.580396       -15.7934
  57   2.0000      -0.577752       -15.7214
  58   2.0000      -0.569438       -15.4952
  59   2.0000      -0.561875       -15.2894
  60   2.0000      -0.505363       -13.7516
  61   2.0000      -0.497580       -13.5398
  62   2.0000      -0.475449       -12.9376
  63   2.0000      -0.474271       -12.9056
  64   2.0000      -0.452105       -12.3024
  65   2.0000      -0.447424       -12.1750
  66   2.0000      -0.439748       -11.9662
  67   2.0000      -0.432431       -11.7670
  68   2.0000      -0.425709       -11.5841
  69   2.0000      -0.413472       -11.2511
  70   2.0000      -0.405151       -11.0247
  71   2.0000      -0.399961       -10.8835
  72   2.0000      -0.394321       -10.7300
  73   2.0000      -0.383364       -10.4319
  74   2.0000      -0.378064       -10.2876
  75   2.0000      -0.367886       -10.0107
  76   2.0000      -0.357969        -9.7408
  77   2.0000      -0.357053        -9.7159
  78   2.0000      -0.354940        -9.6584
  79   2.0000      -0.351693        -9.5701
  80   2.0000      -0.344957        -9.3868
  81   2.0000      -0.341800        -9.3009
  82   2.0000      -0.339772        -9.2457
  83   2.0000      -0.336214        -9.1488
  84   2.0000      -0.327668        -8.9163
  85   2.0000      -0.315986        -8.5984
  86   2.0000      -0.311960        -8.4889
  87   2.0000      -0.304468        -8.2850
  88   2.0000      -0.293033        -7.9738
  89   2.0000      -0.289557        -7.8793
  90   2.0000      -0.274115        -7.4590
  91   2.0000      -0.272292        -7.4094
  92   2.0000      -0.269855        -7.3431
  93   2.0000      -0.263525        -7.1709
  94   2.0000      -0.258295        -7.0286
  95   2.0000      -0.241259        -6.5650
  96   2.0000      -0.221647        -6.0313
  97   2.0000      -0.204098        -5.5538
  98   2.0000      -0.199837        -5.4378
  99   2.0000      -0.191603        -5.2138
 100   2.0000      -0.183359        -4.9895
 101   0.0000      -0.037889        -1.0310
 102   0.0000      -0.029129        -0.7927
 103   0.0000      -0.011950        -0.3252
 104   0.0000       0.009562         0.2602
 105   0.0000       0.019515         0.5310

MULLIKEN ATOMIC CHARGES
-----------------------
   0 C :   -0.291289
   1 C :   -0.034528
   2 O :   -0.366442
   3 P :    0.623664
   4 S :   -0.313967
   5 O :   -0.386097
   6 C :   -0.018514
   7 C :   -0.313808
   8 S :   -0.108898
   9 C :   -0.340568
  10 S :   -0.098147
  11 P :    0.607776
  12 S :   -0.306388
  13 O :   -0.360301
  14 C :   -0.008937
  15 C :   -0.278287
  16 O :   -0.382601
  17 C :   -0.019985
  18 C :   -0.304283
  19 H :    0.123766
  20 H :    0.111778
  21 H :    0.131625
  22 H :    0.111900
  23 H :    0.111707
  24 H :    0.134055
  25 H :    0.103699
  26 H :    0.113561
  27 H :    0.108353
  28 H :    0.129007
  29 H :    0.196848
  30 H :    0.181752
  31 H :    0.108174
  32 H :    0.099096
  33 H :    0.122755
  34 H :    0.109537
  35 H :    0.112296
  36 H :    0.131484
  37 H :    0.100425
  38 H :    0.107962
  39 H :    0.110786
  40 H :    0.141034
Sum of atomic charges:    0.0000000

LOEWDIN ATOMIC CHARGES
----------------------
   0 C :   -0.359422
   1 C :   -0.121067
   2 O :   -0.240962
   3 P :    0.568570
   4 S :   -0.303687
   5 O :   -0.251640
   6 C :   -0.124860
   7 C :   -0.366843
   8 S :    0.084095
   9 C :   -0.478359
  10 S :    0.064905
  11 P :    0.567367
  12 S :   -0.291023
  13 O :   -0.242327
  14 C :   -0.116862
  15 C :   -0.350740
  16 O :   -0.241931
  17 C :   -0.116272
  18 C :   -0.364643
  19 H :    0.131007
  20 H :    0.131198
  21 H :    0.120012
  22 H :    0.120894
  23 H :    0.109912
  24 H :    0.109932
  25 H :    0.118168
  26 H :    0.131669
  27 H :    0.120185
  28 H :    0.125108
  29 H :    0.123819
  30 H :    0.135640
  31 H :    0.116625
  32 H :    0.101292
  33 H :    0.130242
  34 H :    0.129446
  35 H :    0.125751
  36 H :    0.109267
  37 H :    0.116130
  38 H :    0.129805
  39 H :    0.124294
  40 H :    0.125306

  Mayer bond orders larger than 0.100000
B(  0-C ,  1-C ) :   1.1671 B(  0-C , 19-H ) :   0.9455 B(  0-C , 20-H ) :   0.9389
B(  0-C , 21-H ) :   0.9369 B(  1-C ,  2-O ) :   0.8966 B(  1-C , 22-H ) :   0.9321
B(  1-C , 23-H ) :   0.9144 B(  2-O ,  3-P ) :   1.1153 B(  3-P ,  4-S ) :   1.6607
B(  3-P ,  5-O ) :   1.0725 B(  3-P ,  8-S ) :   0.9619 B(  4-S ,  8-S ) :   0.1092
B(  5-O ,  6-C ) :   0.9020 B(  6-C ,  7-C ) :   1.1585 B(  6-C , 24-H ) :   0.9062
B(  6-C , 25-H ) :   0.9359 B(  7-C , 26-H ) :   0.9401 B(  7-C , 27-H ) :   0.9454
B(  7-C , 28-H ) :   0.9350 B(  8-S ,  9-C ) :   1.0027 B(  9-C , 10-S ) :   0.9913
B(  9-C , 29-H ) :   0.8475 B(  9-C , 30-H ) :   0.9125 B( 10-S , 11-P ) :   0.9533
B( 10-S , 12-S ) :   0.1150 B( 11-P , 12-S ) :   1.6355 B( 11-P , 13-O ) :   1.1274
B( 11-P , 16-O ) :   1.1040 B( 12-S , 29-H ) :   0.1091 B( 13-O , 14-C ) :   0.8939
B( 14-C , 15-C ) :   1.1638 B( 14-C , 31-H ) :   0.9324 B( 14-C , 32-H ) :   0.9105
B( 15-C , 33-H ) :   0.9493 B( 15-C , 34-H ) :   0.9415 B( 15-C , 35-H ) :   0.9500
B( 16-O , 17-C ) :   0.9001 B( 17-C , 18-C ) :   1.1732 B( 17-C , 36-H ) :   0.9112
B( 17-C , 37-H ) :   0.9348 B( 18-C , 38-H ) :   0.9389 B( 18-C , 39-H ) :   0.9466
B( 18-C , 40-H ) :   0.9307

Dispersion correction           -0.065399000
FINAL SINGLE POINT ENERGY     -2929.516461588305

DIPOLE MOMENT
-------------

Method             : SCF
Type of density    : Electron Density
Multiplicity       :   1
Irrep              :   0
Energy             : -2929.6359613839495069 Eh
Relativity type    :
Basis              : AO
                                X                 Y                 Z
Electronic contribution:     -2.550447953       4.094740757      -1.221266069
Nuclear contribution   :      2.905783536      -3.704328732       0.619053405
                        -----------------------------------------
Total Dipole Moment    :      0.355335583       0.390412025      -0.602212664
                        -----------------------------------------
Magnitude (a.u.)       :      0.800840196
Magnitude (Debye)      :      2.035574007

Rotational constants in cm-1:             0.012685             0.004971             0.004419
Rotational constants in MHz :           380.285850           149.029212           132.486391

                             ****ORCA TERMINATED NORMALLY****
TOTAL RUN TIME: 0 days 0 hours 0 minutes 20 seconds 763 msec
