                         Program Version 6.0.1  -  RELEASE   -
|  1> ! pbe def2-sv(p) def2/J RI DEFGRID1 loosescf d4 GCP(DFT/SV(P)) printgap
|  2> %output
|  3>     printlevel normal
|  4> end
|  5> * xyz 0 1
|  6> C 1.8404023573 -3.7260847518 -2.1110276958
|  7> C 3.0954015606 -2.9488481532 -1.7473296148
|  8> O 2.7588499898 -1.6235485195 -1.2958461982
|  9> C 2.4058108602 -1.4604215943 -0.0360089952
| 10> O 2.4156648133 -2.3331022169 0.8021345486
| 11> C 1.9891713531 -0.0277691008 0.2468376798
| 12> C 1.0332828249 0.4813559827 -0.8316739894
| 13> H 1.5524632731 0.544334826 -1.7913386446
| 14> C 0.4590484569 1.8356027155 -0.4666157687
| 15> O -0.7365291423 2.0204014503 -0.3466341721
| 16> O 1.3851750563 2.7366657087 -0.310113687
| 17> C 0.9934991094 4.0534055444 0.1404058276
| 18> C 0.9405907743 4.0984679799 1.6584195012
| 19> S -0.3566379351 -0.6572916674 -1.1265135436
| 20> P -1.631352291 -0.2187899844 0.5327067846
| 21> S -0.9867374913 0.5677864085 2.2082066019
| 22> O -3.0126964934 0.3261444934 -0.0577553132
| 23> C -3.4615615549 1.6786949646 -0.1302251128
| 24> O -2.0936674685 -1.7029405225 0.893053138
| 25> C -2.7214573636 -2.5873585896 -0.048191549
| 26> H 1.2557285738 -3.1712748855 -2.8398437851
| 27> H 2.1193228755 -4.6889114873 -2.525522994
| 28> H 1.2317936253 -3.885028398 -1.2235815769
| 29> H 3.7302935063 -2.7847584205 -2.6177464233
| 30> H 3.652309292 -3.4585397195 -0.9560284172
| 31> H 2.8778160379 0.606036821 0.2601039854
| 32> H 1.5213494878 -0.0015936481 1.2338860024
| 33> H 1.7651060671 4.713985725 -0.2541388733
| 34> H 0.0194966931 4.2956419487 -0.2916046667
| 35> H 0.2217344323 3.3717051848 2.0344135759
| 36> H 1.9153823627 3.8676699918 2.0781245032
| 37> H 0.6386992579 5.0899597547 1.9784705499
| 38> H -3.0856106616 2.2479642838 0.7195700137
| 39> H -4.5478778706 1.6250132652 -0.1046298269
| 40> H -3.1153826916 2.1315326154 -1.057068555
| 41> H -2.7940529581 -3.5436461603 0.4636780858
| 42> H -2.1076535517 -2.6780241003 -0.9451292341
| 43> H -3.7089037726 -2.2103268668 -0.3081734858
| 44> *
| 45>
| 46>                          ****END OF INPUT****

CARTESIAN COORDINATES (ANGSTROEM)
---------------------------------
  C      1.840402   -3.726085   -2.111028
  C      3.095402   -2.948848   -1.747330
  O      2.758850   -1.623549   -1.295846
  C      2.405811   -1.460422   -0.036009
  O      2.415665   -2.333102    0.802135
  C      1.989171   -0.027769    0.246838
  C      1.033283    0.481356   -0.831674
  H      1.552463    0.544335   -1.791339
  C      0.459048    1.835603   -0.466616
  O     -0.736529    2.020401   -0.346634
  O      1.385175    2.736666   -0.310114
  C      0.993499    4.053406    0.140406
  C      0.940591    4.098468    1.658420
  S     -0.356638   -0.657292   -1.126514
  P     -1.631352   -0.218790    0.532707
  S     -0.986737    0.567786    2.208207
  O     -3.012696    0.326144   -0.057755
  C     -3.461562    1.678695   -0.130225
  O     -2.093667   -1.702941    0.893053
  C     -2.721457   -2.587359   -0.048192
  H      1.255729   -3.171275   -2.839844
  H      2.119323   -4.688911   -2.525523
  H      1.231794   -3.885028   -1.223582
  H      3.730294   -2.784758   -2.617746
  H      3.652309   -3.458540   -0.956028
  H      2.877816    0.606037    0.260104
  H      1.521349   -0.001594    1.233886
  H      1.765106    4.713986   -0.254139
  H      0.019497    4.295642   -0.291605
  H      0.221734    3.371705    2.034414
  H      1.915382    3.867670    2.078125
  H      0.638699    5.089960    1.978471
  H     -3.085611    2.247964    0.719570
  H     -4.547878    1.625013   -0.104630
  H     -3.115383    2.131533   -1.057069
  H     -2.794053   -3.543646    0.463678
  H     -2.107654   -2.678024   -0.945129
  H     -3.708904   -2.210327   -0.308173

 Total Charge           Charge          ....    0
 Multiplicity           Mult            ....    1
 Number of Electrons    NEL             ....  174
 Basis Dimension        Dim             ....  316

ORBITAL ENERGIES
----------------

  NO   OCC          E(Eh)            E(eV)
   0   2.0000     -88.035891     -2395.5784
   1   2.0000     -87.972723     -2393.8595
   2   2.0000     -76.420782     -2079.5152
   3   2.0000     -18.826481      -512.2946
   4   2.0000     -18.801821      -511.6236
   5   2.0000     -18.783526      -511.1257
   6   2.0000     -18.773772      -510.8603
   7   2.0000     -18.760467      -510.4983
   8   2.0000     -18.734064      -509.7798
   9   2.0000     -10.031514      -272.9714
  10   2.0000     -10.007100      -272.3070
  11   2.0000      -9.960433      -271.0372
  12   2.0000      -9.953733      -270.8549
  13   2.0000      -9.947792      -270.6932
  14   2.0000      -9.939134      -270.4576
  15   2.0000      -9.935462      -270.3577
  16   2.0000      -9.905638      -269.5461
  17   2.0000      -9.889080      -269.0956
  18   2.0000      -9.884246      -268.9640
  19   2.0000      -7.680631      -209.0006
  20   2.0000      -7.617956      -207.2951
  21   2.0000      -6.416514      -174.6022
  22   2.0000      -5.708695      -155.3415
  23   2.0000      -5.705256      -155.2479
  24   2.0000      -5.697300      -155.0314
  25   2.0000      -5.647294      -153.6707
  26   2.0000      -5.638722      -153.4374
  27   2.0000      -5.637452      -153.4029
  28   2.0000      -4.639385      -126.2441
  29   2.0000      -4.638432      -126.2182
  30   2.0000      -4.637012      -126.1795
  31   2.0000      -1.035785       -28.1851
  32   2.0000      -1.009187       -27.4614
  33   2.0000      -0.972847       -26.4725
  34   2.0000      -0.940915       -25.6036
  35   2.0000      -0.927197       -25.2303
  36   2.0000      -0.911499       -24.8032
  37   2.0000      -0.768595       -20.9145
  38   2.0000      -0.716109       -19.4863
  39   2.0000      -0.707134       -19.2421
  40   2.0000      -0.687925       -18.7194
  41   2.0000      -0.653682       -17.7876
  42   2.0000      -0.630163       -17.1476
  43   2.0000      -0.627812       -17.0836
  44   2.0000      -0.609495       -16.5852
  45   2.0000      -0.594501       -16.1772
  46   2.0000      -0.570862       -15.5339
  47   2.0000      -0.513206       -13.9651
  48   2.0000      -0.506655       -13.7868
  49   2.0000      -0.498128       -13.5547
  50   2.0000      -0.486874       -13.2485
  51   2.0000      -0.468593       -12.7511
  52   2.0000      -0.461554       -12.5595
  53   2.0000      -0.450701       -12.2642
  54   2.0000      -0.438513       -11.9326
  55   2.0000      -0.436108       -11.8671
  56   2.0000      -0.422475       -11.4961
  57   2.0000      -0.420271       -11.4362
  58   2.0000      -0.410989       -11.1836
  59   2.0000      -0.407775       -11.0961
  60   2.0000      -0.401647       -10.9294
  61   2.0000      -0.395575       -10.7642
  62   2.0000      -0.389234       -10.5916
  63   2.0000      -0.384658       -10.4671
  64   2.0000      -0.380989       -10.3672
  65   2.0000      -0.369199       -10.0464
  66   2.0000      -0.357451        -9.7267
  67   2.0000      -0.352623        -9.5954
  68   2.0000      -0.350726        -9.5437
  69   2.0000      -0.337671        -9.1885
  70   2.0000      -0.334196        -9.0939
  71   2.0000      -0.332638        -9.0515
  72   2.0000      -0.322778        -8.7832
  73   2.0000      -0.309497        -8.4218
  74   2.0000      -0.307811        -8.3759
  75   2.0000      -0.293868        -7.9966
  76   2.0000      -0.292384        -7.9562
  77   2.0000      -0.289275        -7.8716
  78   2.0000      -0.282207        -7.6792
  79   2.0000      -0.261656        -7.1200
  80   2.0000      -0.259503        -7.0614
  81   2.0000      -0.252114        -6.8604
  82   2.0000      -0.248092        -6.7509
  83   2.0000      -0.216668        -5.8958
  84   2.0000      -0.213158        -5.8003
  85   2.0000      -0.193127        -5.2553
  86   2.0000      -0.184928        -5.0322
  87   0.0000      -0.047823        -1.3013
  88   0.0000      -0.039825        -1.0837
  89   0.0000      -0.015758        -0.4288
  90   0.0000      -0.002952        -0.0803
  91   0.0000       0.032401         0.8817

MULLIKEN ATOMIC CHARGES
-----------------------
   0 C :   -0.306467
   1 C :   -0.010469
   2 O :   -0.242833
   3 C :    0.129055
   4 O :   -0.182207
   5 C :   -0.090532
   6 C :   -0.298634
   7 H :    0.151344
   8 C :    0.218816
   9 O :   -0.191872
  10 O :   -0.217667
  11 C :   -0.012987
  12 C :   -0.315791
  13 S :   -0.115350
  14 P :    0.638985
  15 S :   -0.318396
  16 O :   -0.398634
  17 C :   -0.078837
  18 O :   -0.367649
  19 C :   -0.111939
  20 H :    0.112952
  21 H :    0.110712
  22 H :    0.132777
  23 H :    0.099955
  24 H :    0.109577
  25 H :    0.120583
  26 H :    0.125516
  27 H :    0.108560
  28 H :    0.111337
  29 H :    0.147590
  30 H :    0.116930
  31 H :    0.113971
  32 H :    0.114519
  33 H :    0.115855
  34 H :    0.113867
  35 H :    0.130016
  36 H :    0.119385
  37 H :    0.117963
Sum of atomic charges:    0.0000000

LOEWDIN ATOMIC CHARGES
----------------------
   0 C :   -0.358065
   1 C :   -0.109886
   2 O :   -0.066615
   3 C :    0.024479
   4 O :   -0.152969
   5 C :   -0.256035
   6 C :   -0.261829
   7 H :    0.150751
   8 C :    0.025278
   9 O :   -0.157076
  10 O :   -0.034509
  11 C :   -0.105704
  12 C :   -0.359499
  13 S :    0.097402
  14 P :    0.588630
  15 S :   -0.312528
  16 O :   -0.254076
  17 C :   -0.206275
  18 O :   -0.252981
  19 C :   -0.213631
  20 H :    0.122364
  21 H :    0.129069
  22 H :    0.131969
  23 H :    0.116329
  24 H :    0.120626
  25 H :    0.144966
  26 H :    0.137012
  27 H :    0.120562
  28 H :    0.121214
  29 H :    0.132111
  30 H :    0.126915
  31 H :    0.132029
  32 H :    0.111109
  33 H :    0.115773
  34 H :    0.111962
  35 H :    0.125148
  36 H :    0.103116
  37 H :    0.112864

  Mayer bond orders larger than 0.100000
B(  0-C ,  1-C ) :   1.1757 B(  0-C , 20-H ) :   0.9469 B(  0-C , 21-H ) :   0.9427
B(  0-C , 22-H ) :   0.9431 B(  1-C ,  2-O ) :   0.9176 B(  1-C , 23-H ) :   0.9379
B(  1-C , 24-H ) :   0.9152 B(  2-O ,  3-C ) :   1.1992 B(  3-C ,  4-O ) :   2.0838
B(  3-C ,  5-C ) :   1.0215 B(  5-C ,  6-C ) :   1.0467 B(  5-C , 25-H ) :   0.8693
B(  5-C , 26-H ) :   0.8790 B(  6-C ,  7-H ) :   0.8541 B(  6-C ,  8-C ) :   0.9174
B(  6-C , 13-S ) :   1.0442 B(  8-C ,  9-O ) :   1.9401 B(  8-C , 10-O ) :   1.2844
B(  9-O , 14-P ) :   0.1017 B( 10-O , 11-C ) :   0.8946 B( 11-C , 12-C ) :   1.1782
B( 11-C , 27-H ) :   0.9362 B( 11-C , 28-H ) :   0.9141 B( 12-C , 29-H ) :   0.9287
B( 12-C , 30-H ) :   0.9480 B( 12-C , 31-H ) :   0.9408 B( 13-S , 14-P ) :   0.9151
B( 13-S , 15-S ) :   0.1098 B( 14-P , 15-S ) :   1.5807 B( 14-P , 16-O ) :   1.0873
B( 14-P , 18-O ) :   1.1043 B( 16-O , 17-C ) :   0.9292 B( 17-C , 32-H ) :   0.9419
B( 17-C , 33-H ) :   0.9539 B( 17-C , 34-H ) :   0.9529 B( 18-O , 19-C ) :   0.9349
B( 19-C , 35-H ) :   0.9603 B( 19-C , 36-H ) :   0.9358 B( 19-C , 37-H ) :   0.9467

Dispersion correction           -0.052878121
FINAL SINGLE POINT ENERGY     -1979.010750284702

DIPOLE MOMENT
-------------

Method             : SCF
Type of density    : Electron Density
Multiplicity       :   1
Irrep              :   0
Energy             : -1979.1409200696775770 Eh
Relativity type    :
Basis              : AO
                                X                 Y                 Z
Electronic contribution:     -4.209678763      -1.194440645       4.508568945
Nuclear contribution   :      4.454876008       2.133192882      -6.278484369
                        -----------------------------------------
Total Dipole Moment    :      0.245197245       0.938752238      -1.769915424
                        -----------------------------------------
Magnitude (a.u.)       :      2.018409785
Magnitude (Debye)      :      5.130389954

Rotational constants in cm-1:             0.011740             0.008375             0.005987
Rotational constants in MHz :           351.946079           251.076326           179.473258

                             ****ORCA TERMINATED NORMALLY****
TOTAL RUN TIME: 0 days 0 hours 0 minutes 36 seconds 532 msec
