                         Program Version 6.0.0  -   RELEASE  -
|  1> ! wb97x-v def2-tzvp def2/J RIJCOSX DEFGRID2 scfconv7 GCP(DFT/TZ) printgap
|  2> %output
|  3>     printlevel normal
|  4> end
|  5> * xyz 0 1
|  6> C 2.426089464479895 1.096911704379635 -0.0017723623326785318
|  7> C 1.16533848813089 0.2871034871976414 0.003182478402029274
|  8> C 1.1979343824172837 -1.1053627374642048 0.004107094790092748
|  9> C -0.004093446894536585 -1.8062764610556492 0.00021782588800283066
| 10> C -1.195577506214876 -1.098896366102429 -0.0035684166835108335
| 11> C -1.1529721424969275 0.2989608455650881 -0.002495048453938105
| 12> N 0.005906790949575143 0.9761548854987169 0.00037986891942137134
| 13> C -2.425588473048674 1.0923540960713656 0.0004222328222279776
| 14> H 2.433167085590356 1.8043912788297398 0.8336662846459214
| 15> H 3.3085532235097936 0.45780325314825965 0.07076571615973265
| 16> H 2.498352705799219 1.6854718624756926 -0.9231043650977978
| 17> H 2.14853829692764 -1.628098043966726 0.007249293994726918
| 18> H -0.007389220139826879 -2.8920016978764793 0.0002391487721960297
| 19> H -2.152190782458234 -1.6117135260634565 -0.006135603696133983
| 20> H -3.00453079372235 0.887246657888086 0.907629150708689
| 21> H -2.219529739314736 2.162761566875341 -0.04750463660509061
| 22> H -3.0568258044451913 0.8149947934797019 -0.8503821943248211
| 23> *
| 24>
| 25>                          ****END OF INPUT****

CARTESIAN COORDINATES (ANGSTROEM)
---------------------------------
  C      2.426089    1.096912   -0.001772
  C      1.165338    0.287103    0.003182
  C      1.197934   -1.105363    0.004107
  C     -0.004093   -1.806276    0.000218
  C     -1.195578   -1.098896   -0.003568
  C     -1.152972    0.298961   -0.002495
  N      0.005907    0.976155    0.000380
  C     -2.425588    1.092354    0.000422
  H      2.433167    1.804391    0.833666
  H      3.308553    0.457803    0.070766
  H      2.498353    1.685472   -0.923104
  H      2.148538   -1.628098    0.007249
  H     -0.007389   -2.892002    0.000239
  H     -2.152191   -1.611714   -0.006136
  H     -3.004531    0.887247    0.907629
  H     -2.219530    2.162762   -0.047505
  H     -3.056826    0.814995   -0.850382

 Total Charge           Charge          ....    0
 Multiplicity           Mult            ....    1
 Number of Electrons    NEL             ....   58
 Basis Dimension        Dim             ....  302

ORBITAL ENERGIES
----------------

  NO   OCC          E(Eh)            E(eV)
   0   2.0000     -16.514975      -449.3953
   1   2.0000     -12.090013      -328.9860
   2   2.0000     -12.088713      -328.9506
   3   2.0000     -12.066568      -328.3480
   4   2.0000     -12.049993      -327.8970
   5   2.0000     -12.049573      -327.8855
   6   2.0000     -12.039265      -327.6050
   7   2.0000     -12.039230      -327.6041
   8   2.0000      -1.512268       -41.1509
   9   2.0000      -1.338488       -36.4221
  10   2.0000      -1.322215       -35.9793
  11   2.0000      -1.229124       -33.4462
  12   2.0000      -1.196218       -32.5508
  13   2.0000      -1.118273       -30.4297
  14   2.0000      -1.115505       -30.3544
  15   2.0000      -0.993500       -27.0345
  16   2.0000      -0.957929       -26.0666
  17   2.0000      -0.912141       -24.8206
  18   2.0000      -0.874038       -23.7838
  19   2.0000      -0.871497       -23.7147
  20   2.0000      -0.860244       -23.4084
  21   2.0000      -0.833479       -22.6801
  22   2.0000      -0.833067       -22.6689
  23   2.0000      -0.820616       -22.3301
  24   2.0000      -0.815779       -22.1985
  25   2.0000      -0.788692       -21.4614
  26   2.0000      -0.756558       -20.5870
  27   2.0000      -0.693834       -18.8802
  28   2.0000      -0.637493       -17.3471
  29   0.0000      -0.285342        -7.7646
  30   0.0000      -0.243135        -6.6160
  31   0.0000      -0.094149        -2.5619
  32   0.0000      -0.048772        -1.3272
  33   0.0000      -0.040880        -1.1124

MULLIKEN ATOMIC CHARGES
-----------------------
   0 C :   -0.351744
   1 C :    0.186844
   2 C :   -0.199442
   3 C :   -0.079573
   4 C :   -0.199820
   5 C :    0.167628
   6 N :   -0.254330
   7 C :   -0.368467
   8 H :    0.125683
   9 H :    0.109002
  10 H :    0.123668
  11 H :    0.118594
  12 H :    0.126413
  13 H :    0.120407
  14 H :    0.120674
  15 H :    0.134080
  16 H :    0.120384
Sum of atomic charges:    0.0000000

LOEWDIN ATOMIC CHARGES
----------------------
   0 C :   -0.252521
   1 C :   -0.232441
   2 C :   -0.137812
   3 C :   -0.117980
   4 C :   -0.134042
   5 C :   -0.232754
   6 N :    0.164172
   7 C :   -0.254655
   8 H :    0.130162
   9 H :    0.121373
  10 H :    0.130482
  11 H :    0.143206
  12 H :    0.144064
  13 H :    0.144512
  14 H :    0.128321
  15 H :    0.128383
  16 H :    0.127530

  Mayer bond orders larger than 0.100000
B(  0-C ,  1-C ) :   0.9453 B(  0-C ,  8-H ) :   0.9726 B(  0-C ,  9-H ) :   0.9985
B(  0-C , 10-H ) :   0.9666 B(  1-C ,  2-C ) :   1.4375 B(  1-C ,  6-N ) :   1.4270
B(  2-C ,  3-C ) :   1.4318 B(  2-C , 11-H ) :   0.9555 B(  3-C ,  4-C ) :   1.4769
B(  3-C , 12-H ) :   0.9665 B(  4-C ,  5-C ) :   1.3691 B(  4-C , 13-H ) :   0.9647
B(  5-C ,  6-N ) :   1.5456 B(  5-C ,  7-C ) :   0.9244 B(  7-C , 14-H ) :   0.9708
B(  7-C , 15-H ) :   0.9938 B(  7-C , 16-H ) :   0.9756

FINAL SINGLE POINT ENERGY      -326.934993949772

DIPOLE MOMENT
-------------

Method             : SCF
Type of density    : Electron Density
Multiplicity       :   1
Irrep              :   0
Energy             :  -326.9447133253718221 Eh
Relativity type    :
Basis              : AO
                                X                 Y                 Z
Electronic contribution:      0.030779328      -2.148963758       0.005877799
Nuclear contribution   :     -0.061560272       1.540426492      -0.007012809
                        -----------------------------------------
Total Dipole Moment    :     -0.030780943      -0.608537265      -0.001135010
                        -----------------------------------------
Magnitude (a.u.)       :      0.609316304
Magnitude (Debye)      :      1.548758963

Rotational constants in cm-1:             0.118765             0.063073             0.041835
Rotational constants in MHz :          3560.497140          1890.878747          1254.169652

                             ****ORCA TERMINATED NORMALLY****
TOTAL RUN TIME: 0 days 0 hours 2 minutes 13 seconds 464 msec
