                         Program Version 6.0.0  -   RELEASE  -
|  1> ! wb97x-v def2-tzvp def2/J RIJCOSX DEFGRID2 scfconv7 GCP(DFT/TZ) printgap
|  2> %output
|  3>     printlevel normal
|  4> end
|  5> %cpcm
|  6>     smd true
|  7>     smdsolvent "water"
|  8> end
|  9> * xyz 0 1
| 10> C 2.426089464479895 1.096911704379635 -0.0017723623326785318
| 11> C 1.16533848813089 0.2871034871976414 0.003182478402029274
| 12> C 1.1979343824172837 -1.1053627374642048 0.004107094790092748
| 13> C -0.004093446894536585 -1.8062764610556492 0.00021782588800283066
| 14> C -1.195577506214876 -1.098896366102429 -0.0035684166835108335
| 15> C -1.1529721424969275 0.2989608455650881 -0.002495048453938105
| 16> N 0.005906790949575143 0.9761548854987169 0.00037986891942137134
| 17> C -2.425588473048674 1.0923540960713656 0.0004222328222279776
| 18> H 2.433167085590356 1.8043912788297398 0.8336662846459214
| 19> H 3.3085532235097936 0.45780325314825965 0.07076571615973265
| 20> H 2.498352705799219 1.6854718624756926 -0.9231043650977978
| 21> H 2.14853829692764 -1.628098043966726 0.007249293994726918
| 22> H -0.007389220139826879 -2.8920016978764793 0.0002391487721960297
| 23> H -2.152190782458234 -1.6117135260634565 -0.006135603696133983
| 24> H -3.00453079372235 0.887246657888086 0.907629150708689
| 25> H -2.219529739314736 2.162761566875341 -0.04750463660509061
| 26> H -3.0568258044451913 0.8149947934797019 -0.8503821943248211
| 27> *
| 28>
| 29>                          ****END OF INPUT****

CARTESIAN COORDINATES (ANGSTROEM)
---------------------------------
  C      2.426089    1.096912   -0.001772
  C      1.165338    0.287103    0.003182
  C      1.197934   -1.105363    0.004107
  C     -0.004093   -1.806276    0.000218
  C     -1.195578   -1.098896   -0.003568
  C     -1.152972    0.298961   -0.002495
  N      0.005907    0.976155    0.000380
  C     -2.425588    1.092354    0.000422
  H      2.433167    1.804391    0.833666
  H      3.308553    0.457803    0.070766
  H      2.498353    1.685472   -0.923104
  H      2.148538   -1.628098    0.007249
  H     -0.007389   -2.892002    0.000239
  H     -2.152191   -1.611714   -0.006136
  H     -3.004531    0.887247    0.907629
  H     -2.219530    2.162762   -0.047505
  H     -3.056826    0.814995   -0.850382

 Total Charge           Charge          ....    0
 Multiplicity           Mult            ....    1
 Number of Electrons    NEL             ....   58
 Basis Dimension        Dim             ....  302

ORBITAL ENERGIES
----------------

  NO   OCC          E(Eh)            E(eV)
   0   2.0000     -16.519358      -449.5146
   1   2.0000     -12.090115      -328.9888
   2   2.0000     -12.088602      -328.9476
   3   2.0000     -12.061878      -328.2204
   4   2.0000     -12.045540      -327.7758
   5   2.0000     -12.045142      -327.7650
   6   2.0000     -12.033508      -327.4484
   7   2.0000     -12.033412      -327.4458
   8   2.0000      -1.515927       -41.2505
   9   2.0000      -1.336179       -36.3593
  10   2.0000      -1.321127       -35.9497
  11   2.0000      -1.225388       -33.3445
  12   2.0000      -1.192574       -32.4516
  13   2.0000      -1.117609       -30.4117
  14   2.0000      -1.112337       -30.2682
  15   2.0000      -0.991083       -26.9687
  16   2.0000      -0.953258       -25.9395
  17   2.0000      -0.906413       -24.6648
  18   2.0000      -0.869695       -23.6656
  19   2.0000      -0.867936       -23.6177
  20   2.0000      -0.860082       -23.4040
  21   2.0000      -0.828334       -22.5401
  22   2.0000      -0.828129       -22.5345
  23   2.0000      -0.815901       -22.2018
  24   2.0000      -0.810717       -22.0607
  25   2.0000      -0.787425       -21.4269
  26   2.0000      -0.759785       -20.6748
  27   2.0000      -0.693928       -18.8828
  28   2.0000      -0.636110       -17.3094
  29   0.0000      -0.285529        -7.7696
  30   0.0000      -0.241843        -6.5809
  31   0.0000      -0.091860        -2.4996
  32   0.0000      -0.046908        -1.2764
  33   0.0000      -0.030585        -0.8323

MULLIKEN ATOMIC CHARGES
-----------------------
   0 C :   -0.411792
   1 C :    0.210853
   2 C :   -0.248926
   3 C :   -0.101568
   4 C :   -0.244456
   5 C :    0.180038
   6 N :   -0.334317
   7 C :   -0.398137
   8 H :    0.140707
   9 H :    0.141907
  10 H :    0.141750
  11 H :    0.164731
  12 H :    0.171818
  13 H :    0.164383
  14 H :    0.144907
  15 H :    0.132776
  16 H :    0.145324
Sum of atomic charges:   -0.0000000

LOEWDIN ATOMIC CHARGES
----------------------
   0 C :   -0.258332
   1 C :   -0.240496
   2 C :   -0.139201
   3 C :   -0.115353
   4 C :   -0.134126
   5 C :   -0.239292
   6 N :    0.126544
   7 C :   -0.257467
   8 H :    0.131903
   9 H :    0.130404
  10 H :    0.133286
  11 H :    0.154615
  12 H :    0.155805
  13 H :    0.155680
  14 H :    0.135444
  15 H :    0.125631
  16 H :    0.134956

  Mayer bond orders larger than 0.100000
B(  0-C ,  1-C ) :   0.9343 B(  0-C ,  8-H ) :   0.9708 B(  0-C ,  9-H ) :   0.9909
B(  0-C , 10-H ) :   0.9648 B(  1-C ,  2-C ) :   1.4353 B(  1-C ,  6-N ) :   1.4005
B(  2-C ,  3-C ) :   1.4107 B(  2-C , 11-H ) :   0.9588 B(  3-C ,  4-C ) :   1.4565
B(  3-C , 12-H ) :   0.9638 B(  4-C ,  5-C ) :   1.3695 B(  4-C , 13-H ) :   0.9663
B(  5-C ,  6-N ) :   1.5316 B(  5-C ,  7-C ) :   0.9314 B(  7-C , 14-H ) :   0.9636
B(  7-C , 15-H ) :   0.9916 B(  7-C , 16-H ) :   0.9677

FINAL SINGLE POINT ENERGY      -326.940937090506

DIPOLE MOMENT
-------------

Method             : SCF
Type of density    : Electron Density
Multiplicity       :   1
Irrep              :   0
Energy             :  -326.9506564661060679 Eh
Relativity type    :
Basis              : AO
                                X                 Y                 Z
Electronic contribution:      0.009441047      -2.528731735       0.004970194
Nuclear contribution   :     -0.061560272       1.540426492      -0.007012809
                        -----------------------------------------
Total Dipole Moment    :     -0.052119225      -0.988305243      -0.002042615
                        -----------------------------------------
Magnitude (a.u.)       :      0.989680675
Magnitude (Debye)      :      2.515568361

Rotational constants in cm-1:             0.118765             0.063073             0.041835
Rotational constants in MHz :          3560.497140          1890.878747          1254.169652

                             ****ORCA TERMINATED NORMALLY****
TOTAL RUN TIME: 0 days 0 hours 2 minutes 18 seconds 978 msec
