                         Program Version 6.0.0  -   RELEASE  -
|  1> ! wb97x-v def2-tzvp def2/J RIJCOSX DEFGRID2 scfconv7 GCP(DFT/TZ) printgap
|  2> %output
|  3>     printlevel normal
|  4> end
|  5> %cpcm
|  6>     smd true
|  7>     smdsolvent "water"
|  8> end
|  9> * xyz 0 1
| 10> C -1.751072236512828 -0.6590160352500466 0.016367129095713098
| 11> C -0.46124258365103576 0.08605402985788327 -0.09613457015359668
| 12> O -0.3453019801870872 1.2595027612630663 -0.40886511815682813
| 13> O 0.5952504992976416 -0.7056160744219848 0.18043115835472906
| 14> C 1.8999269500881353 -0.08092613289556429 0.06825344617736163
| 15> H -2.5884593179045825 0.029216614452696847 -0.0910270098472472
| 16> H -1.80685106295845 -1.1788808478437027 0.9763503969562729
| 17> H -1.795900486504639 -1.4174324544523296 -0.7720843447153529
| 18> H 1.982942500350702 0.7505217494543449 0.7721646629440133
| 19> H 2.062580636427145 0.27260054613691487 -0.9525935381024305
| 20> H 2.6162750083439557 -0.8625393734975406 0.3180330110680221
| 21> *
| 22>
| 23>                          ****END OF INPUT****

CARTESIAN COORDINATES (ANGSTROEM)
---------------------------------
  C     -1.751072   -0.659016    0.016367
  C     -0.461243    0.086054   -0.096135
  O     -0.345302    1.259503   -0.408865
  O      0.595250   -0.705616    0.180431
  C      1.899927   -0.080926    0.068253
  H     -2.588459    0.029217   -0.091027
  H     -1.806851   -1.178881    0.976350
  H     -1.795900   -1.417432   -0.772084
  H      1.982943    0.750522    0.772165
  H      2.062581    0.272601   -0.952594
  H      2.616275   -0.862539    0.318033

 Total Charge           Charge          ....    0
 Multiplicity           Mult            ....    1
 Number of Electrons    NEL             ....   40
 Basis Dimension        Dim             ....  191

ORBITAL ENERGIES
----------------

  NO   OCC          E(Eh)            E(eV)
   0   2.0000     -21.723044      -591.1141
   1   2.0000     -21.669130      -589.6470
   2   2.0000     -12.188131      -331.6559
   3   2.0000     -12.092293      -329.0480
   4   2.0000     -12.047293      -327.8235
   5   2.0000      -1.764310       -48.0093
   6   2.0000      -1.702569       -46.3293
   7   2.0000      -1.303596       -35.4727
   8   2.0000      -1.218349       -33.1530
   9   2.0000      -1.125375       -30.6230
  10   2.0000      -1.072552       -29.1856
  11   2.0000      -1.006982       -27.4014
  12   2.0000      -0.998968       -27.1833
  13   2.0000      -0.944388       -25.6981
  14   2.0000      -0.916036       -24.9266
  15   2.0000      -0.862827       -23.4787
  16   2.0000      -0.834004       -22.6944
  17   2.0000      -0.831614       -22.6294
  18   2.0000      -0.829771       -22.5792
  19   2.0000      -0.814074       -22.1521
  20   0.0000      -0.307105        -8.3568
  21   0.0000      -0.174489        -4.7481
  22   0.0000      -0.104243        -2.8366
  23   0.0000      -0.007600        -0.2068
  24   0.0000       0.014521         0.3951

MULLIKEN ATOMIC CHARGES
-----------------------
   0 C :   -0.371105
   1 C :    0.410967
   2 O :   -0.477782
   3 O :   -0.273337
   4 C :   -0.222379
   5 H :    0.149154
   6 H :    0.162169
   7 H :    0.165645
   8 H :    0.150119
   9 H :    0.150115
  10 H :    0.156434
Sum of atomic charges:    0.0000000

LOEWDIN ATOMIC CHARGES
----------------------
   0 C :   -0.249846
   1 C :   -0.473901
   2 O :    0.014854
   3 O :    0.213281
   4 C :   -0.285488
   5 H :    0.137183
   6 H :    0.144750
   7 H :    0.149052
   8 H :    0.115474
   9 H :    0.115553
  10 H :    0.119089

  Mayer bond orders larger than 0.100000
B(  0-C ,  1-C ) :   0.9950 B(  0-C ,  5-H ) :   0.9728 B(  0-C ,  6-H ) :   0.9513
B(  0-C ,  7-H ) :   0.9420 B(  1-C ,  2-O ) :   1.9209 B(  1-C ,  3-O ) :   1.1949
B(  3-O ,  4-C ) :   0.8836 B(  4-C ,  8-H ) :   0.9733 B(  4-C ,  9-H ) :   0.9734
B(  4-C , 10-H ) :   0.9662

FINAL SINGLE POINT ENERGY      -268.411989075591

DIPOLE MOMENT
-------------

Method             : SCF
Type of density    : Electron Density
Multiplicity       :   1
Irrep              :   0
Energy             :  -268.4192529387910895 Eh
Relativity type    :
Basis              : AO
                                X                 Y                 Z
Electronic contribution:     -0.170278737       1.095801833      -0.236252408
Nuclear contribution   :      0.390101435      -2.141228062       0.502377251
                        -----------------------------------------
Total Dipole Moment    :      0.219822699      -1.045426228       0.266124843
                        -----------------------------------------
Magnitude (a.u.)       :      1.100936170
Magnitude (Debye)      :      2.798357355

Rotational constants in cm-1:             0.340249             0.137829             0.101876
Rotational constants in MHz :         10200.402189          4132.002197          3054.152956

                             ****ORCA TERMINATED NORMALLY****
TOTAL RUN TIME: 0 days 0 hours 0 minutes 59 seconds 997 msec
