                         Program Version 6.0.1  -  RELEASE   -
|  1> ! pbe def2-sv(p) def2/J RI DEFGRID1 loosescf d4 GCP(DFT/SV(P)) printgap
|  2> %output
|  3>     printlevel normal
|  4> end
|  5> * xyz 0 1
|  6> C 4.0126797515 -0.2471447825 -2.4036426099
|  7> C 3.6894264091 -1.7211738059 -2.2205279085
|  8> O 2.4850552518 -1.8713188312 -1.4467980335
|  9> C 2.5851863187 -2.1312508551 -0.1548274958
| 10> O 3.6194808851 -2.3603736629 0.4285261235
| 11> C 1.2155726193 -2.1919001782 0.5018209338
| 12> C 0.4048276318 -0.9509216403 0.1500601937
| 13> H 0.2604870683 -0.8911852263 -0.9370165566
| 14> C 1.1391976767 0.3144053235 0.553993635
| 15> O 2.3410058514 0.4230705579 0.4730308884
| 16> O 0.3182923622 1.2631665567 0.9497010346
| 17> C 0.8648449991 2.5428755494 1.3289127186
| 18> C 1.2122772812 2.5579549458 2.8076693679
| 19> S -1.2508326111 -1.0259738537 0.9081305202
| 20> P -2.1413281862 0.5882377482 -0.1612011899
| 21> S -1.2931863579 1.096623091 -1.8516298664
| 22> O -3.6533592401 0.0798852884 -0.3148648868
| 23> C -3.9855191196 -1.0148196631 -1.175152266
| 24> O -2.3625137673 1.8039421891 0.8209995374
| 25> C -3.0304018988 1.6502133055 2.0892988052
| 26> H 4.1429867603 0.2233532593 -1.4312151871
| 27> H 4.9270110007 -0.1441730151 -2.9781946065
| 28> H 3.1997925255 0.2532461572 -2.9239335322
| 29> H 4.5013774901 -2.2390469311 -1.7023977782
| 30> H 3.4759588788 -2.2037524666 -3.175304532
| 31> H 1.3549389296 -2.2766195868 1.5796388414
| 32> H 0.6962941518 -3.0789129968 0.13635831
| 33> H 1.7476710606 2.7343224408 0.7130942835
| 34> H 0.0740702532 3.2548571652 1.0891655163
| 35> H 1.5582146978 3.5493269701 3.0803745816
| 36> H 0.3388728331 2.3062771049 3.4029578251
| 37> H 2.0028449599 1.8394323124 3.0130446756
| 38> H -3.5383160828 -0.8682473757 -2.1596206592
| 39> H -5.0700537475 -1.0121809536 -1.2475960189
| 40> H -3.6316756049 -1.9490625296 -0.7394672612
| 41> H -2.547884322 0.8649484271 2.6713182844
| 42> H -4.0780260217 1.4038950832 1.9287465967
| 43> H -2.9315687775 2.6138684887 2.5822295762
| 44> *
| 45>
| 46>                          ****END OF INPUT****

CARTESIAN COORDINATES (ANGSTROEM)
---------------------------------
  C      4.012680   -0.247145   -2.403643
  C      3.689426   -1.721174   -2.220528
  O      2.485055   -1.871319   -1.446798
  C      2.585186   -2.131251   -0.154827
  O      3.619481   -2.360374    0.428526
  C      1.215573   -2.191900    0.501821
  C      0.404828   -0.950922    0.150060
  H      0.260487   -0.891185   -0.937017
  C      1.139198    0.314405    0.553994
  O      2.341006    0.423071    0.473031
  O      0.318292    1.263167    0.949701
  C      0.864845    2.542876    1.328913
  C      1.212277    2.557955    2.807669
  S     -1.250833   -1.025974    0.908131
  P     -2.141328    0.588238   -0.161201
  S     -1.293186    1.096623   -1.851630
  O     -3.653359    0.079885   -0.314865
  C     -3.985519   -1.014820   -1.175152
  O     -2.362514    1.803942    0.821000
  C     -3.030402    1.650213    2.089299
  H      4.142987    0.223353   -1.431215
  H      4.927011   -0.144173   -2.978195
  H      3.199793    0.253246   -2.923934
  H      4.501377   -2.239047   -1.702398
  H      3.475959   -2.203752   -3.175305
  H      1.354939   -2.276620    1.579639
  H      0.696294   -3.078913    0.136358
  H      1.747671    2.734322    0.713094
  H      0.074070    3.254857    1.089166
  H      1.558215    3.549327    3.080375
  H      0.338873    2.306277    3.402958
  H      2.002845    1.839432    3.013045
  H     -3.538316   -0.868247   -2.159621
  H     -5.070054   -1.012181   -1.247596
  H     -3.631676   -1.949063   -0.739467
  H     -2.547884    0.864948    2.671318
  H     -4.078026    1.403895    1.928747
  H     -2.931569    2.613868    2.582230

 Total Charge           Charge          ....    0
 Multiplicity           Mult            ....    1
 Number of Electrons    NEL             ....  174
 Basis Dimension        Dim             ....  316

ORBITAL ENERGIES
----------------

  NO   OCC          E(Eh)            E(eV)
   0   2.0000     -88.045218     -2395.8322
   1   2.0000     -87.986965     -2394.2470
   2   2.0000     -76.430652     -2079.7838
   3   2.0000     -18.816402      -512.0203
   4   2.0000     -18.800546      -511.5889
   5   2.0000     -18.796143      -511.4690
   6   2.0000     -18.793216      -511.3894
   7   2.0000     -18.748945      -510.1847
   8   2.0000     -18.726166      -509.5649
   9   2.0000     -10.022000      -272.7125
  10   2.0000     -10.004560      -272.2379
  11   2.0000      -9.956929      -270.9418
  12   2.0000      -9.952395      -270.8184
  13   2.0000      -9.948021      -270.6994
  14   2.0000      -9.947701      -270.6907
  15   2.0000      -9.937728      -270.4193
  16   2.0000      -9.912395      -269.7300
  17   2.0000      -9.892749      -269.1954
  18   2.0000      -9.873918      -268.6830
  19   2.0000      -7.689853      -209.2515
  20   2.0000      -7.632206      -207.6829
  21   2.0000      -6.427565      -174.9029
  22   2.0000      -5.717543      -155.5823
  23   2.0000      -5.714548      -155.5008
  24   2.0000      -5.706945      -155.2939
  25   2.0000      -5.661351      -154.0532
  26   2.0000      -5.652692      -153.8176
  27   2.0000      -5.652230      -153.8050
  28   2.0000      -4.650329      -126.5419
  29   2.0000      -4.649458      -126.5182
  30   2.0000      -4.647857      -126.4746
  31   2.0000      -1.023944       -27.8629
  32   2.0000      -1.000091       -27.2139
  33   2.0000      -0.992784       -27.0150
  34   2.0000      -0.947957       -25.7952
  35   2.0000      -0.929579       -25.2951
  36   2.0000      -0.904871       -24.6228
  37   2.0000      -0.769827       -20.9481
  38   2.0000      -0.713058       -19.4033
  39   2.0000      -0.707194       -19.2437
  40   2.0000      -0.691051       -18.8044
  41   2.0000      -0.659806       -17.9542
  42   2.0000      -0.641788       -17.4639
  43   2.0000      -0.626243       -17.0409
  44   2.0000      -0.619729       -16.8637
  45   2.0000      -0.588043       -16.0015
  46   2.0000      -0.570024       -15.5111
  47   2.0000      -0.520874       -14.1737
  48   2.0000      -0.504667       -13.7327
  49   2.0000      -0.493869       -13.4389
  50   2.0000      -0.482780       -13.1371
  51   2.0000      -0.478786       -13.0284
  52   2.0000      -0.466426       -12.6921
  53   2.0000      -0.445422       -12.1206
  54   2.0000      -0.439157       -11.9501
  55   2.0000      -0.436143       -11.8681
  56   2.0000      -0.427854       -11.6425
  57   2.0000      -0.421044       -11.4572
  58   2.0000      -0.415389       -11.3033
  59   2.0000      -0.407511       -11.0889
  60   2.0000      -0.406827       -11.0703
  61   2.0000      -0.401538       -10.9264
  62   2.0000      -0.395014       -10.7489
  63   2.0000      -0.379456       -10.3255
  64   2.0000      -0.371512       -10.1093
  65   2.0000      -0.370364       -10.0781
  66   2.0000      -0.358999        -9.7689
  67   2.0000      -0.353922        -9.6307
  68   2.0000      -0.346016        -9.4156
  69   2.0000      -0.341342        -9.2884
  70   2.0000      -0.333836        -9.0842
  71   2.0000      -0.328713        -8.9447
  72   2.0000      -0.319532        -8.6949
  73   2.0000      -0.317614        -8.6427
  74   2.0000      -0.311204        -8.4683
  75   2.0000      -0.302791        -8.2394
  76   2.0000      -0.299504        -8.1499
  77   2.0000      -0.284446        -7.7402
  78   2.0000      -0.276060        -7.5120
  79   2.0000      -0.274117        -7.4591
  80   2.0000      -0.264931        -7.2091
  81   2.0000      -0.250285        -6.8106
  82   2.0000      -0.247818        -6.7435
  83   2.0000      -0.217565        -5.9202
  84   2.0000      -0.213051        -5.7974
  85   2.0000      -0.206917        -5.6305
  86   2.0000      -0.203322        -5.5327
  87   0.0000      -0.046189        -1.2569
  88   0.0000      -0.033651        -0.9157
  89   0.0000      -0.011806        -0.3213
  90   0.0000       0.006479         0.1763
  91   0.0000       0.013609         0.3703

MULLIKEN ATOMIC CHARGES
-----------------------
   0 C :   -0.303862
   1 C :   -0.017260
   2 O :   -0.247343
   3 C :    0.112531
   4 O :   -0.188889
   5 C :   -0.045929
   6 C :   -0.361926
   7 H :    0.175297
   8 C :    0.242421
   9 O :   -0.186254
  10 O :   -0.225889
  11 C :   -0.007851
  12 C :   -0.307609
  13 S :   -0.102607
  14 P :    0.624827
  15 S :   -0.317966
  16 O :   -0.390603
  17 C :   -0.099945
  18 O :   -0.364224
  19 C :   -0.110650
  20 H :    0.138623
  21 H :    0.105662
  22 H :    0.113134
  23 H :    0.110270
  24 H :    0.099279
  25 H :    0.106019
  26 H :    0.121960
  27 H :    0.114526
  28 H :    0.113364
  29 H :    0.117016
  30 H :    0.112454
  31 H :    0.129233
  32 H :    0.119390
  33 H :    0.126040
  34 H :    0.114524
  35 H :    0.122418
  36 H :    0.129117
  37 H :    0.130702
Sum of atomic charges:   -0.0000000

LOEWDIN ATOMIC CHARGES
----------------------
   0 C :   -0.356911
   1 C :   -0.110409
   2 O :   -0.065959
   3 C :    0.029815
   4 O :   -0.158765
   5 C :   -0.238952
   6 C :   -0.281918
   7 H :    0.145410
   8 C :    0.030373
   9 O :   -0.140887
  10 O :   -0.050721
  11 C :   -0.107384
  12 C :   -0.354356
  13 S :    0.084909
  14 P :    0.579285
  15 S :   -0.311741
  16 O :   -0.261666
  17 C :   -0.216512
  18 O :   -0.236520
  19 C :   -0.211011
  20 H :    0.134321
  21 H :    0.126554
  22 H :    0.124533
  23 H :    0.119840
  24 H :    0.115129
  25 H :    0.137783
  26 H :    0.145790
  27 H :    0.122992
  28 H :    0.121852
  29 H :    0.132797
  30 H :    0.123243
  31 H :    0.131906
  32 H :    0.112571
  33 H :    0.122863
  34 H :    0.108326
  35 H :    0.109974
  36 H :    0.118518
  37 H :    0.124928

  Mayer bond orders larger than 0.100000
B(  0-C ,  1-C ) :   1.1778 B(  0-C , 20-H ) :   0.9387 B(  0-C , 21-H ) :   0.9432
B(  0-C , 22-H ) :   0.9498 B(  1-C ,  2-O ) :   0.9148 B(  1-C , 23-H ) :   0.9079
B(  1-C , 24-H ) :   0.9376 B(  2-O ,  3-C ) :   1.1939 B(  3-C ,  4-O ) :   2.0862
B(  3-C ,  5-C ) :   1.0179 B(  5-C ,  6-C ) :   1.0583 B(  5-C , 25-H ) :   0.9065
B(  5-C , 26-H ) :   0.8865 B(  6-C ,  7-H ) :   0.8241 B(  6-C ,  8-C ) :   0.8865
B(  6-C , 13-S ) :   1.0209 B(  8-C ,  9-O ) :   2.0059 B(  8-C , 10-O ) :   1.2526
B( 10-O , 11-C ) :   0.8953 B( 11-C , 12-C ) :   1.1759 B( 11-C , 27-H ) :   0.9164
B( 11-C , 28-H ) :   0.9295 B( 12-C , 29-H ) :   0.9443 B( 12-C , 30-H ) :   0.9487
B( 12-C , 31-H ) :   0.9457 B( 13-S , 14-P ) :   0.9469 B( 13-S , 15-S ) :   0.1152
B( 14-P , 15-S ) :   1.6406 B( 14-P , 16-O ) :   1.0681 B( 14-P , 18-O ) :   1.1160
B( 16-O , 17-C ) :   0.9318 B( 17-C , 32-H ) :   0.9360 B( 17-C , 33-H ) :   0.9585
B( 17-C , 34-H ) :   0.9460 B( 18-O , 19-C ) :   0.9172 B( 19-C , 35-H ) :   0.9362
B( 19-C , 36-H ) :   0.9480 B( 19-C , 37-H ) :   0.9587

Dispersion correction           -0.052167782
FINAL SINGLE POINT ENERGY     -1979.021380664809

DIPOLE MOMENT
-------------

Method             : SCF
Type of density    : Electron Density
Multiplicity       :   1
Irrep              :   0
Energy             : -1979.1526631971310053 Eh
Relativity type    :
Basis              : AO
                                X                 Y                 Z
Electronic contribution:     -9.409422945      -3.370039025      -2.300953362
Nuclear contribution   :      8.109795020       3.572077219       2.907577772
                        -----------------------------------------
Total Dipole Moment    :     -1.299627925       0.202038194       0.606624410
                        -----------------------------------------
Magnitude (a.u.)       :      1.448394059
Magnitude (Debye)      :      3.681525122

Rotational constants in cm-1:             0.014343             0.006674             0.005832
Rotational constants in MHz :           429.980268           200.086298           174.834407

                             ****ORCA TERMINATED NORMALLY****
TOTAL RUN TIME: 0 days 0 hours 0 minutes 40 seconds 478 msec
