                         Program Version 6.0.0  -   RELEASE  -
|  1> ! pbe def2-sv(p) def2/J RI DEFGRID1 loosescf d4 GCP(DFT/SV(P)) printgap
|  2> %output
|  3>     printlevel normal
|  4> end
|  5> * xyz 0 1
|  6> C 4.0836110273 1.9433380181 -1.6023953238
|  7> C 4.4195434311 0.5407383144 -1.1384201218
|  8> O 3.2425059548 -0.2694648634 -0.9650696327
|  9> P 2.1820456674 0.0004465555 0.1846855229
| 10> S 2.938846426 0.5244670343 1.918866164
| 11> O 1.3334030103 -1.3368305593 0.1632992614
| 12> C 1.6188567204 -2.452689874 1.0264644614
| 13> C 2.9499312424 -3.0942423931 0.6978664922
| 14> S 0.788606871 1.3133711113 -0.688279627
| 15> C -0.0490186994 1.7895961979 0.8491036996
| 16> S -0.8973473252 0.4047828796 1.6706225223
| 17> P -2.1410772033 -0.2258530733 0.0876855257
| 18> S -1.5434364902 -1.44951524 -1.326202364
| 19> O -2.7565622136 1.1471792459 -0.4303229439
| 20> C -2.8737168153 1.5495131602 -1.8108997762
| 21> C -2.1549171056 2.8639908994 -2.0387811097
| 22> O -3.2324073633 -0.8521878785 1.0604736126
| 23> C -4.1971676447 -1.8202248051 0.6079110821
| 24> C -5.207971012 -1.2042193133 -0.33836117
| 25> H 3.4459930575 1.9067719826 -2.4822482474
| 26> H 3.5617007248 2.4825495731 -0.8129514809
| 27> H 5.001173599 2.4708545095 -1.8424441833
| 28> H 4.9612747311 0.5690107447 -0.18751104
| 29> H 5.0019889132 -0.0029649667 -1.883376474
| 30> H 1.5984917086 -2.0994626169 2.063212846
| 31> H 0.78398943 -3.1342265602 0.8526392675
| 32> H 3.0793720211 -3.9851735132 1.3042869878
| 33> H 2.9855740782 -3.3613485607 -0.3552722609
| 34> H 3.7587761628 -2.3967454778 0.9139337834
| 35> H -0.7689094147 2.5636106209 0.5955689577
| 36> H 0.6878694595 2.1516105233 1.5665388165
| 37> H -2.4634613931 0.7565691824 -2.4456577622
| 38> H -3.9445847782 1.6515790501 -2.0001510203
| 39> H -2.520793771 3.6151737723 -1.3443337646
| 40> H -1.0815115085 2.7414269857 -1.9065799504
| 41> H -2.347556846 3.194882122 -3.0541290733
| 42> H -3.6634073302 -2.6416589604 0.1184558098
| 43> H -4.6645771173 -2.1755216016 1.5272275797
| 44> H -5.9809393445 -1.9320191769 -0.5642854414
| 45> H -5.6590346684 -0.32581384 0.1160073127
| 46> H -4.7139253767 -0.9141521487 -1.2652428455
| 47> *
| 48>
| 49>                          ****END OF INPUT****

CARTESIAN COORDINATES (ANGSTROEM)
---------------------------------
  C      4.083611    1.943338   -1.602395
  C      4.419543    0.540738   -1.138420
  O      3.242506   -0.269465   -0.965070
  P      2.182046    0.000447    0.184686
  S      2.938846    0.524467    1.918866
  O      1.333403   -1.336831    0.163299
  C      1.618857   -2.452690    1.026464
  C      2.949931   -3.094242    0.697866
  S      0.788607    1.313371   -0.688280
  C     -0.049019    1.789596    0.849104
  S     -0.897347    0.404783    1.670623
  P     -2.141077   -0.225853    0.087686
  S     -1.543436   -1.449515   -1.326202
  O     -2.756562    1.147179   -0.430323
  C     -2.873717    1.549513   -1.810900
  C     -2.154917    2.863991   -2.038781
  O     -3.232407   -0.852188    1.060474
  C     -4.197168   -1.820225    0.607911
  C     -5.207971   -1.204219   -0.338361
  H      3.445993    1.906772   -2.482248
  H      3.561701    2.482550   -0.812951
  H      5.001174    2.470855   -1.842444
  H      4.961275    0.569011   -0.187511
  H      5.001989   -0.002965   -1.883376
  H      1.598492   -2.099463    2.063213
  H      0.783989   -3.134227    0.852639
  H      3.079372   -3.985174    1.304287
  H      2.985574   -3.361349   -0.355272
  H      3.758776   -2.396745    0.913934
  H     -0.768909    2.563611    0.595569
  H      0.687869    2.151611    1.566539
  H     -2.463461    0.756569   -2.445658
  H     -3.944585    1.651579   -2.000151
  H     -2.520794    3.615174   -1.344334
  H     -1.081512    2.741427   -1.906580
  H     -2.347557    3.194882   -3.054129
  H     -3.663407   -2.641659    0.118456
  H     -4.664577   -2.175522    1.527228
  H     -5.980939   -1.932019   -0.564285
  H     -5.659035   -0.325814    0.116007
  H     -4.713925   -0.914152   -1.265243

 Total Charge           Charge          ....    0
 Multiplicity           Mult            ....    1
 Number of Electrons    NEL             ....  202
 Basis Dimension        Dim             ....  334

ORBITAL ENERGIES
----------------

  NO   OCC          E(Eh)            E(eV)
   0   2.0000     -88.044084     -2395.8013
   1   2.0000     -88.037401     -2395.6195
   2   2.0000     -87.987793     -2394.2696
   3   2.0000     -87.981827     -2394.1072
   4   2.0000     -76.424940     -2079.6283
   5   2.0000     -76.422562     -2079.5636
   6   2.0000     -18.793550      -511.3985
   7   2.0000     -18.793321      -511.3923
   8   2.0000     -18.786575      -511.2087
   9   2.0000     -18.781212      -511.0628
  10   2.0000      -9.956593      -270.9327
  11   2.0000      -9.953298      -270.8430
  12   2.0000      -9.952978      -270.8343
  13   2.0000      -9.949438      -270.7380
  14   2.0000      -9.941703      -270.5275
  15   2.0000      -9.890651      -269.1383
  16   2.0000      -9.885816      -269.0067
  17   2.0000      -9.885078      -268.9866
  18   2.0000      -9.877084      -268.7691
  19   2.0000      -7.688804      -209.2230
  20   2.0000      -7.682644      -209.0554
  21   2.0000      -7.632719      -207.6968
  22   2.0000      -7.626814      -207.5362
  23   2.0000      -6.422453      -174.7638
  24   2.0000      -6.420031      -174.6979
  25   2.0000      -5.716618      -155.5571
  26   2.0000      -5.713454      -155.4710
  27   2.0000      -5.710821      -155.3994
  28   2.0000      -5.707199      -155.3008
  29   2.0000      -5.705695      -155.2598
  30   2.0000      -5.699213      -155.0835
  31   2.0000      -5.661462      -154.0562
  32   2.0000      -5.655643      -153.8979
  33   2.0000      -5.653458      -153.8384
  34   2.0000      -5.652974      -153.8252
  35   2.0000      -5.647310      -153.6711
  36   2.0000      -5.647180      -153.6676
  37   2.0000      -4.644801      -126.3915
  38   2.0000      -4.644130      -126.3732
  39   2.0000      -4.643212      -126.3482
  40   2.0000      -4.642752      -126.3357
  41   2.0000      -4.641647      -126.3056
  42   2.0000      -4.640505      -126.2746
  43   2.0000      -0.983799       -26.7705
  44   2.0000      -0.981841       -26.7172
  45   2.0000      -0.944423       -25.6991
  46   2.0000      -0.941685       -25.6245
  47   2.0000      -0.764125       -20.7929
  48   2.0000      -0.721954       -19.6454
  49   2.0000      -0.706651       -19.2289
  50   2.0000      -0.689709       -18.7679
  51   2.0000      -0.683859       -18.6087
  52   2.0000      -0.669308       -18.2128
  53   2.0000      -0.649436       -17.6720
  54   2.0000      -0.638664       -17.3789
  55   2.0000      -0.601837       -16.3768
  56   2.0000      -0.593200       -16.1418
  57   2.0000      -0.574470       -15.6321
  58   2.0000      -0.568717       -15.4756
  59   2.0000      -0.559511       -15.2251
  60   2.0000      -0.497961       -13.5502
  61   2.0000      -0.489782       -13.3276
  62   2.0000      -0.477289       -12.9877
  63   2.0000      -0.469664       -12.7802
  64   2.0000      -0.456440       -12.4204
  65   2.0000      -0.439719       -11.9654
  66   2.0000      -0.438813       -11.9407
  67   2.0000      -0.435771       -11.8579
  68   2.0000      -0.426922       -11.6172
  69   2.0000      -0.411623       -11.2008
  70   2.0000      -0.399437       -10.8692
  71   2.0000      -0.396226       -10.7819
  72   2.0000      -0.391803       -10.6615
  73   2.0000      -0.388151       -10.5621
  74   2.0000      -0.382713       -10.4142
  75   2.0000      -0.377540       -10.2734
  76   2.0000      -0.371586       -10.1114
  77   2.0000      -0.360344        -9.8055
  78   2.0000      -0.355834        -9.6827
  79   2.0000      -0.352674        -9.5968
  80   2.0000      -0.345479        -9.4010
  81   2.0000      -0.344765        -9.3815
  82   2.0000      -0.340188        -9.2570
  83   2.0000      -0.337818        -9.1925
  84   2.0000      -0.331929        -9.0323
  85   2.0000      -0.321425        -8.7464
  86   2.0000      -0.309804        -8.4302
  87   2.0000      -0.295684        -8.0460
  88   2.0000      -0.293608        -7.9895
  89   2.0000      -0.280429        -7.6309
  90   2.0000      -0.278160        -7.5691
  91   2.0000      -0.275036        -7.4841
  92   2.0000      -0.268893        -7.3169
  93   2.0000      -0.264297        -7.1919
  94   2.0000      -0.260432        -7.0867
  95   2.0000      -0.235131        -6.3982
  96   2.0000      -0.215238        -5.8569
  97   2.0000      -0.208923        -5.6851
  98   2.0000      -0.205157        -5.5826
  99   2.0000      -0.195363        -5.3161
 100   2.0000      -0.192933        -5.2500
 101   0.0000      -0.048661        -1.3241
 102   0.0000      -0.025074        -0.6823
 103   0.0000      -0.001099        -0.0299
 104   0.0000       0.003986         0.1085
 105   0.0000       0.020630         0.5614

MULLIKEN ATOMIC CHARGES
-----------------------
   0 C :   -0.316251
   1 C :   -0.004640
   2 O :   -0.367399
   3 P :    0.630946
   4 S :   -0.340380
   5 O :   -0.344862
   6 C :    0.003632
   7 C :   -0.310724
   8 S :   -0.098866
   9 C :   -0.366515
  10 S :   -0.066430
  11 P :    0.626067
  12 S :   -0.311577
  13 O :   -0.385480
  14 C :   -0.018249
  15 C :   -0.305085
  16 O :   -0.377133
  17 C :   -0.002609
  18 C :   -0.317116
  19 H :    0.119033
  20 H :    0.125224
  21 H :    0.113719
  22 H :    0.111420
  23 H :    0.107247
  24 H :    0.109402
  25 H :    0.105153
  26 H :    0.109919
  27 H :    0.118572
  28 H :    0.118828
  29 H :    0.188553
  30 H :    0.191612
  31 H :    0.116030
  32 H :    0.104343
  33 H :    0.118559
  34 H :    0.132051
  35 H :    0.114078
  36 H :    0.110894
  37 H :    0.105206
  38 H :    0.113381
  39 H :    0.117747
  40 H :    0.121700
Sum of atomic charges:   -0.0000000

LOEWDIN ATOMIC CHARGES
----------------------
   0 C :   -0.369920
   1 C :   -0.118464
   2 O :   -0.239944
   3 P :    0.576413
   4 S :   -0.327331
   5 O :   -0.227780
   6 C :   -0.116654
   7 C :   -0.365932
   8 S :    0.098910
   9 C :   -0.478608
  10 S :    0.101275
  11 P :    0.563794
  12 S :   -0.305044
  13 O :   -0.251402
  14 C :   -0.121187
  15 C :   -0.359778
  16 O :   -0.249906
  17 C :   -0.119910
  18 C :   -0.366005
  19 H :    0.124678
  20 H :    0.120460
  21 H :    0.131398
  22 H :    0.110911
  23 H :    0.119756
  24 H :    0.109535
  25 H :    0.118745
  26 H :    0.129291
  27 H :    0.126985
  28 H :    0.119827
  29 H :    0.131603
  30 H :    0.131328
  31 H :    0.108084
  32 H :    0.114584
  33 H :    0.125444
  34 H :    0.115305
  35 H :    0.133383
  36 H :    0.109457
  37 H :    0.118873
  38 H :    0.131236
  39 H :    0.126111
  40 H :    0.120478

  Mayer bond orders larger than 0.100000
B(  0-C ,  1-C ) :   1.1665 B(  0-C , 19-H ) :   0.9445 B(  0-C , 20-H ) :   0.9353
B(  0-C , 21-H ) :   0.9376 B(  1-C ,  2-O ) :   0.9076 B(  1-C , 22-H ) :   0.9161
B(  1-C , 23-H ) :   0.9338 B(  2-O ,  3-P ) :   1.1150 B(  3-P ,  4-S ) :   1.5858
B(  3-P ,  5-O ) :   1.1473 B(  3-P ,  8-S ) :   0.9455 B(  4-S ,  8-S ) :   0.1054
B(  5-O ,  6-C ) :   0.9058 B(  6-C ,  7-C ) :   1.1637 B(  6-C , 24-H ) :   0.9194
B(  6-C , 25-H ) :   0.9299 B(  7-C , 26-H ) :   0.9398 B(  7-C , 27-H ) :   0.9456
B(  7-C , 28-H ) :   0.9365 B(  8-S ,  9-C ) :   1.0077 B(  9-C , 10-S ) :   1.0017
B(  9-C , 29-H ) :   0.8987 B(  9-C , 30-H ) :   0.8841 B( 10-S , 11-P ) :   0.9641
B( 10-S , 12-S ) :   0.1053 B( 11-P , 12-S ) :   1.6215 B( 11-P , 13-O ) :   1.0897
B( 11-P , 16-O ) :   1.1132 B( 13-O , 14-C ) :   0.9081 B( 14-C , 15-C ) :   1.1671
B( 14-C , 31-H ) :   0.8966 B( 14-C , 32-H ) :   0.9303 B( 15-C , 33-H ) :   0.9441
B( 15-C , 34-H ) :   0.9308 B( 15-C , 35-H ) :   0.9375 B( 16-O , 17-C ) :   0.9159
B( 17-C , 18-C ) :   1.1604 B( 17-C , 36-H ) :   0.9136 B( 17-C , 37-H ) :   0.9341
B( 18-C , 38-H ) :   0.9389 B( 18-C , 39-H ) :   0.9464 B( 18-C , 40-H ) :   0.9326

Dispersion correction           -0.067404844
FINAL SINGLE POINT ENERGY     -2929.521813849082

DIPOLE MOMENT
-------------

Method             : SCF
Type of density    : Electron Density
Multiplicity       :   1
Irrep              :   0
Energy             : -2929.6391374162708416 Eh
Relativity type    :
Basis              : AO
                                X                 Y                 Z
Electronic contribution:      2.374952435      -0.864716965       9.950091066
Nuclear contribution   :     -2.855347021       1.223802562     -10.692364263
                        -----------------------------------------
Total Dipole Moment    :     -0.480394586       0.359085597      -0.742273197
                        -----------------------------------------
Magnitude (a.u.)       :      0.954301275
Magnitude (Debye)      :      2.425641072

Rotational constants in cm-1:             0.012846             0.005296             0.004650
Rotational constants in MHz :           385.109728           158.773118           139.398272

                             ****ORCA TERMINATED NORMALLY****
TOTAL RUN TIME: 0 days 0 hours 0 minutes 21 seconds 177 msec
