                         Program Version 6.0.1  -  RELEASE   -
|  1> ! r2scan-3c def2/J RI DEFGRID2 scfconv6 printgap
|  2> %output
|  3>     printlevel normal
|  4> end
|  5> * xyz 0 1
|  6> C 5.5852859908 -1.2994577051 -0.1028257302
|  7> C 4.6001616424 -0.6155685416 -1.0311488226
|  8> O 3.2942233278 -1.1859248628 -0.8116500353
|  9> C 2.3954749273 -1.0764506858 -1.7686483418
| 10> O 2.5950695901 -0.5665390458 -2.8475972063
| 11> C 1.0625565256 -1.6688373039 -1.3411678103
| 12> C 0.1049226997 -0.5108853547 -1.0334180076
| 13> H -0.0728781284 0.0797288647 -1.9361087962
| 14> C 0.7712002469 0.377851474 1.13467e-05
| 15> O 1.6463681646 1.1569242511 -0.302302759
| 16> O 0.3618250357 0.1322368363 1.2258184432
| 17> C 1.0321458809 0.8068630856 2.3094726962
| 18> C 2.2329218746 -0.0045608329 2.7651199038
| 19> S -1.4751700637 -1.1930298327 -0.4373753143
| 20> P -2.3152569656 0.5863533985 0.3605546846
| 21> S -1.587536095 2.272175231 -0.3289260728
| 22> O -3.8766047864 0.37381601 0.0852732854
| 23> C -4.4140827839 0.413550966 -1.2415037162
| 24> O -2.2923740155 0.4993362538 1.9351316296
| 25> C -2.8161726509 -0.6464031977 2.6421442562
| 26> H 5.6191956087 -2.3643980138 -0.3129737453
| 27> H 6.570994366 -0.8728543193 -0.2550927783
| 28> H 5.2899245119 -1.154324033 0.9320797375
| 29> H 4.8629934581 -0.7541195471 -2.0842242036
| 30> H 4.5248478192 0.4581694995 -0.8306246502
| 31> H 1.2042550264 -2.2845487477 -0.4532573453
| 32> H 0.6523849912 -2.2650000328 -2.1559450238
| 33> H 1.330398648 1.8002536947 1.9620244746
| 34> H 0.2758846285 0.8949374567 3.0896698442
| 35> H 1.9181453967 -0.9919143618 3.0906198571
| 36> H 2.9390780995 -0.1096558804 1.9440307818
| 37> H 2.7189389141 0.5087921313 3.5879040532
| 38> H -4.0544516108 1.2997575267 -1.7667608013
| 39> H -5.4931724207 0.4576757427 -1.1185402678
| 40> H -4.1249524229 -0.4857412133 -1.7850545495
| 41> H -2.3213649521 -1.5529519773 2.2942744211
| 42> H -3.8896340399 -0.7197897214 2.4818000883
| 43> H -2.5934867097 -0.4598182852 3.6893087734
| 44> *
| 45>
| 46>                          ****END OF INPUT****

CARTESIAN COORDINATES (ANGSTROEM)
---------------------------------
  C      5.585286   -1.299458   -0.102826
  C      4.600162   -0.615569   -1.031149
  O      3.294223   -1.185925   -0.811650
  C      2.395475   -1.076451   -1.768648
  O      2.595070   -0.566539   -2.847597
  C      1.062557   -1.668837   -1.341168
  C      0.104923   -0.510885   -1.033418
  H     -0.072878    0.079729   -1.936109
  C      0.771200    0.377851    0.000011
  O      1.646368    1.156924   -0.302303
  O      0.361825    0.132237    1.225818
  C      1.032146    0.806863    2.309473
  C      2.232922   -0.004561    2.765120
  S     -1.475170   -1.193030   -0.437375
  P     -2.315257    0.586353    0.360555
  S     -1.587536    2.272175   -0.328926
  O     -3.876605    0.373816    0.085273
  C     -4.414083    0.413551   -1.241504
  O     -2.292374    0.499336    1.935132
  C     -2.816173   -0.646403    2.642144
  H      5.619196   -2.364398   -0.312974
  H      6.570994   -0.872854   -0.255093
  H      5.289925   -1.154324    0.932080
  H      4.862993   -0.754120   -2.084224
  H      4.524848    0.458169   -0.830625
  H      1.204255   -2.284549   -0.453257
  H      0.652385   -2.265000   -2.155945
  H      1.330399    1.800254    1.962024
  H      0.275885    0.894937    3.089670
  H      1.918145   -0.991914    3.090620
  H      2.939078   -0.109656    1.944031
  H      2.718939    0.508792    3.587904
  H     -4.054452    1.299758   -1.766761
  H     -5.493172    0.457676   -1.118540
  H     -4.124952   -0.485741   -1.785055
  H     -2.321365   -1.552952    2.294274
  H     -3.889634   -0.719790    2.481800
  H     -2.593487   -0.459818    3.689309

 Total Charge           Charge          ....    0
 Multiplicity           Mult            ....    1
 Number of Electrons    NEL             ....  174
 Basis Dimension        Dim             ....  510

ORBITAL ENERGIES
----------------

  NO   OCC          E(Eh)            E(eV)
   0   2.0000     -88.578134     -2410.3336
   1   2.0000     -88.520110     -2408.7546
   2   2.0000     -76.916737     -2093.0108
   3   2.0000     -19.004262      -517.1322
   4   2.0000     -19.000188      -517.0214
   5   2.0000     -18.998729      -516.9817
   6   2.0000     -18.995064      -516.8820
   7   2.0000     -18.934130      -515.2239
   8   2.0000     -18.928955      -515.0830
   9   2.0000     -10.163234      -276.5557
  10   2.0000     -10.157940      -276.4116
  11   2.0000     -10.102812      -274.9115
  12   2.0000     -10.098782      -274.8018
  13   2.0000     -10.094308      -274.6801
  14   2.0000     -10.093597      -274.6607
  15   2.0000     -10.090050      -274.5642
  16   2.0000     -10.065355      -273.8922
  17   2.0000     -10.032925      -273.0098
  18   2.0000     -10.032873      -273.0083
  19   2.0000      -7.872576      -214.2237
  20   2.0000      -7.814582      -212.6456
  21   2.0000      -6.595058      -179.4606
  22   2.0000      -5.819377      -158.3533
  23   2.0000      -5.816390      -158.2720
  24   2.0000      -5.809790      -158.0924
  25   2.0000      -5.762516      -156.8060
  26   2.0000      -5.754673      -156.5926
  27   2.0000      -5.754553      -156.5894
  28   2.0000      -4.740771      -129.0029
  29   2.0000      -4.740149      -128.9860
  30   2.0000      -4.738483      -128.9407
  31   2.0000      -1.083734       -29.4899
  32   2.0000      -1.075359       -29.2620
  33   2.0000      -1.055143       -28.7119
  34   2.0000      -1.012997       -27.5650
  35   2.0000      -0.985597       -26.8195
  36   2.0000      -0.978759       -26.6334
  37   2.0000      -0.815374       -22.1874
  38   2.0000      -0.757009       -20.5993
  39   2.0000      -0.743755       -20.2386
  40   2.0000      -0.736408       -20.0387
  41   2.0000      -0.701107       -19.0781
  42   2.0000      -0.680386       -18.5142
  43   2.0000      -0.659623       -17.9493
  44   2.0000      -0.650784       -17.7087
  45   2.0000      -0.626147       -17.0383
  46   2.0000      -0.598807       -16.2944
  47   2.0000      -0.546211       -14.8632
  48   2.0000      -0.537050       -14.6139
  49   2.0000      -0.527061       -14.3420
  50   2.0000      -0.499594       -13.5946
  51   2.0000      -0.496240       -13.5034
  52   2.0000      -0.482844       -13.1388
  53   2.0000      -0.473345       -12.8804
  54   2.0000      -0.458803       -12.4847
  55   2.0000      -0.454812       -12.3761
  56   2.0000      -0.450723       -12.2648
  57   2.0000      -0.440314       -11.9815
  58   2.0000      -0.436665       -11.8823
  59   2.0000      -0.429136       -11.6774
  60   2.0000      -0.423631       -11.5276
  61   2.0000      -0.417807       -11.3691
  62   2.0000      -0.413785       -11.2597
  63   2.0000      -0.410753       -11.1771
  64   2.0000      -0.387297       -10.5389
  65   2.0000      -0.380202       -10.3458
  66   2.0000      -0.375899       -10.2287
  67   2.0000      -0.368911       -10.0386
  68   2.0000      -0.363112        -9.8808
  69   2.0000      -0.358370        -9.7517
  70   2.0000      -0.349364        -9.5067
  71   2.0000      -0.346220        -9.4211
  72   2.0000      -0.342616        -9.3231
  73   2.0000      -0.329701        -8.9716
  74   2.0000      -0.326714        -8.8904
  75   2.0000      -0.319809        -8.7024
  76   2.0000      -0.314609        -8.5609
  77   2.0000      -0.313253        -8.5240
  78   2.0000      -0.293493        -7.9864
  79   2.0000      -0.282042        -7.6748
  80   2.0000      -0.277357        -7.5473
  81   2.0000      -0.271079        -7.3764
  82   2.0000      -0.253855        -6.9077
  83   2.0000      -0.238621        -6.4932
  84   2.0000      -0.230660        -6.2766
  85   2.0000      -0.217892        -5.9291
  86   2.0000      -0.216417        -5.8890
  87   0.0000      -0.045205        -1.2301
  88   0.0000      -0.028503        -0.7756
  89   0.0000      -0.021148        -0.5755
  90   0.0000       0.008056         0.2192
  91   0.0000       0.016499         0.4490

MULLIKEN ATOMIC CHARGES
-----------------------
   0 C :   -0.439480
   1 C :   -0.171137
   2 O :   -0.140081
   3 C :    0.292991
   4 O :   -0.386731
   5 C :   -0.347570
   6 C :   -0.048416
   7 H :    0.249971
   8 C :    0.280195
   9 O :   -0.376217
  10 O :   -0.138899
  11 C :   -0.152665
  12 C :   -0.470742
  13 S :   -0.211030
  14 P :    0.759681
  15 S :   -0.406699
  16 O :   -0.357999
  17 C :   -0.295453
  18 O :   -0.308029
  19 C :   -0.290321
  20 H :    0.152434
  21 H :    0.149593
  22 H :    0.148066
  23 H :    0.171917
  24 H :    0.172946
  25 H :    0.186303
  26 H :    0.178305
  27 H :    0.182627
  28 H :    0.159718
  29 H :    0.152055
  30 H :    0.169587
  31 H :    0.150940
  32 H :    0.176075
  33 H :    0.152581
  34 H :    0.158815
  35 H :    0.170645
  36 H :    0.170170
  37 H :    0.155855
Sum of atomic charges:    0.0000000

LOEWDIN ATOMIC CHARGES
----------------------
   0 C :   -0.386835
   1 C :    0.034007
   2 O :   -0.590241
   3 C :    0.351296
   4 O :   -0.408032
   5 C :   -0.202447
   6 C :   -0.191873
   7 H :    0.208569
   8 C :    0.323973
   9 O :   -0.408303
  10 O :   -0.620745
  11 C :    0.035924
  12 C :   -0.387384
  13 S :    0.188579
  14 P :    0.396739
  15 S :   -0.041744
  16 O :   -0.683086
  17 C :   -0.058162
  18 O :   -0.649508
  19 C :   -0.051618
  20 H :    0.158689
  21 H :    0.160618
  22 H :    0.157017
  23 H :    0.189108
  24 H :    0.185150
  25 H :    0.188264
  26 H :    0.186984
  27 H :    0.195644
  28 H :    0.182728
  29 H :    0.157131
  30 H :    0.166837
  31 H :    0.159743
  32 H :    0.177449
  33 H :    0.177524
  34 H :    0.169415
  35 H :    0.174076
  36 H :    0.175078
  37 H :    0.179440

  Mayer bond orders larger than 0.100000
B(  0-C ,  1-C ) :   0.9430 B(  0-C , 20-H ) :   0.9752 B(  0-C , 21-H ) :   0.9681
B(  0-C , 22-H ) :   0.9689 B(  1-C ,  2-O ) :   0.7708 B(  1-C , 23-H ) :   0.9578
B(  1-C , 24-H ) :   0.9443 B(  2-O ,  3-C ) :   1.0763 B(  3-C ,  4-O ) :   1.8486
B(  3-C ,  5-C ) :   0.8970 B(  5-C ,  6-C ) :   0.8812 B(  5-C , 25-H ) :   1.0005
B(  5-C , 26-H ) :   0.9337 B(  6-C ,  7-H ) :   0.9558 B(  6-C ,  8-C ) :   0.9169
B(  6-C , 13-S ) :   0.8611 B(  8-C ,  9-O ) :   1.8216 B(  8-C , 10-O ) :   1.0589
B( 10-O , 11-C ) :   0.7913 B( 11-C , 12-C ) :   0.9196 B( 11-C , 27-H ) :   0.9685
B( 11-C , 28-H ) :   0.9586 B( 12-C , 29-H ) :   0.9748 B( 12-C , 30-H ) :   0.9702
B( 12-C , 31-H ) :   0.9678 B( 13-S , 14-P ) :   0.9984 B( 14-P , 15-S ) :   1.7996
B( 14-P , 16-O ) :   1.0256 B( 14-P , 18-O ) :   1.1457 B( 16-O , 17-C ) :   0.8309
B( 17-C , 32-H ) :   0.9589 B( 17-C , 33-H ) :   0.9673 B( 17-C , 34-H ) :   0.9561
B( 18-O , 19-C ) :   0.7945 B( 19-C , 35-H ) :   0.9559 B( 19-C , 36-H ) :   0.9606
B( 19-C , 37-H ) :   0.9653

Dispersion correction           -0.017755518
FINAL SINGLE POINT ENERGY     -1981.450527402369

DIPOLE MOMENT
-------------

Method             : SCF
Type of density    : Electron Density
Multiplicity       :   1
Irrep              :   0
Energy             : -1981.4698553142834498 Eh
Relativity type    :
Basis              : AO
                                X                 Y                 Z
Electronic contribution:    -16.933380694       6.915481351      -7.944468707
Nuclear contribution   :     16.590549707      -8.538361188       9.421204695
                        -----------------------------------------
Total Dipole Moment    :     -0.342830988      -1.622879837       1.476735988
                        -----------------------------------------
Magnitude (a.u.)       :      2.220815443
Magnitude (Debye)      :      5.644864251

Rotational constants in cm-1:             0.017771             0.006053             0.005424
Rotational constants in MHz :           532.749258           181.476048           162.593680

                             ****ORCA TERMINATED NORMALLY****
TOTAL RUN TIME: 0 days 0 hours 1 minutes 19 seconds 469 msec
