                         Program Version 6.0.1  -  RELEASE   -
|  1> ! r2scan-3c def2/J RI DEFGRID2 scfconv6 printgap
|  2> %output
|  3>     printlevel normal
|  4> end
|  5> %cpcm
|  6>     smd true
|  7>     smdsolvent "water"
|  8> end
|  9> * xyz 0 1
| 10> C 5.5852859908 -1.2994577051 -0.1028257302
| 11> C 4.6001616424 -0.6155685416 -1.0311488226
| 12> O 3.2942233278 -1.1859248628 -0.8116500353
| 13> C 2.3954749273 -1.0764506858 -1.7686483418
| 14> O 2.5950695901 -0.5665390458 -2.8475972063
| 15> C 1.0625565256 -1.6688373039 -1.3411678103
| 16> C 0.1049226997 -0.5108853547 -1.0334180076
| 17> H -0.0728781284 0.0797288647 -1.9361087962
| 18> C 0.7712002469 0.377851474 1.13467e-05
| 19> O 1.6463681646 1.1569242511 -0.302302759
| 20> O 0.3618250357 0.1322368363 1.2258184432
| 21> C 1.0321458809 0.8068630856 2.3094726962
| 22> C 2.2329218746 -0.0045608329 2.7651199038
| 23> S -1.4751700637 -1.1930298327 -0.4373753143
| 24> P -2.3152569656 0.5863533985 0.3605546846
| 25> S -1.587536095 2.272175231 -0.3289260728
| 26> O -3.8766047864 0.37381601 0.0852732854
| 27> C -4.4140827839 0.413550966 -1.2415037162
| 28> O -2.2923740155 0.4993362538 1.9351316296
| 29> C -2.8161726509 -0.6464031977 2.6421442562
| 30> H 5.6191956087 -2.3643980138 -0.3129737453
| 31> H 6.570994366 -0.8728543193 -0.2550927783
| 32> H 5.2899245119 -1.154324033 0.9320797375
| 33> H 4.8629934581 -0.7541195471 -2.0842242036
| 34> H 4.5248478192 0.4581694995 -0.8306246502
| 35> H 1.2042550264 -2.2845487477 -0.4532573453
| 36> H 0.6523849912 -2.2650000328 -2.1559450238
| 37> H 1.330398648 1.8002536947 1.9620244746
| 38> H 0.2758846285 0.8949374567 3.0896698442
| 39> H 1.9181453967 -0.9919143618 3.0906198571
| 40> H 2.9390780995 -0.1096558804 1.9440307818
| 41> H 2.7189389141 0.5087921313 3.5879040532
| 42> H -4.0544516108 1.2997575267 -1.7667608013
| 43> H -5.4931724207 0.4576757427 -1.1185402678
| 44> H -4.1249524229 -0.4857412133 -1.7850545495
| 45> H -2.3213649521 -1.5529519773 2.2942744211
| 46> H -3.8896340399 -0.7197897214 2.4818000883
| 47> H -2.5934867097 -0.4598182852 3.6893087734
| 48> *
| 49>
| 50>                          ****END OF INPUT****

CARTESIAN COORDINATES (ANGSTROEM)
---------------------------------
  C      5.585286   -1.299458   -0.102826
  C      4.600162   -0.615569   -1.031149
  O      3.294223   -1.185925   -0.811650
  C      2.395475   -1.076451   -1.768648
  O      2.595070   -0.566539   -2.847597
  C      1.062557   -1.668837   -1.341168
  C      0.104923   -0.510885   -1.033418
  H     -0.072878    0.079729   -1.936109
  C      0.771200    0.377851    0.000011
  O      1.646368    1.156924   -0.302303
  O      0.361825    0.132237    1.225818
  C      1.032146    0.806863    2.309473
  C      2.232922   -0.004561    2.765120
  S     -1.475170   -1.193030   -0.437375
  P     -2.315257    0.586353    0.360555
  S     -1.587536    2.272175   -0.328926
  O     -3.876605    0.373816    0.085273
  C     -4.414083    0.413551   -1.241504
  O     -2.292374    0.499336    1.935132
  C     -2.816173   -0.646403    2.642144
  H      5.619196   -2.364398   -0.312974
  H      6.570994   -0.872854   -0.255093
  H      5.289925   -1.154324    0.932080
  H      4.862993   -0.754120   -2.084224
  H      4.524848    0.458169   -0.830625
  H      1.204255   -2.284549   -0.453257
  H      0.652385   -2.265000   -2.155945
  H      1.330399    1.800254    1.962024
  H      0.275885    0.894937    3.089670
  H      1.918145   -0.991914    3.090620
  H      2.939078   -0.109656    1.944031
  H      2.718939    0.508792    3.587904
  H     -4.054452    1.299758   -1.766761
  H     -5.493172    0.457676   -1.118540
  H     -4.124952   -0.485741   -1.785055
  H     -2.321365   -1.552952    2.294274
  H     -3.889634   -0.719790    2.481800
  H     -2.593487   -0.459818    3.689309

 Total Charge           Charge          ....    0
 Multiplicity           Mult            ....    1
 Number of Electrons    NEL             ....  174
 Basis Dimension        Dim             ....  510

ORBITAL ENERGIES
----------------

  NO   OCC          E(Eh)            E(eV)
   0   2.0000     -88.581447     -2410.4237
   1   2.0000     -88.531901     -2409.0755
   2   2.0000     -76.922894     -2093.1784
   3   2.0000     -19.011868      -517.3392
   4   2.0000     -19.009312      -517.2697
   5   2.0000     -18.999481      -517.0022
   6   2.0000     -18.996501      -516.9211
   7   2.0000     -18.952670      -515.7284
   8   2.0000     -18.949399      -515.6394
   9   2.0000     -10.177493      -276.9437
  10   2.0000     -10.173033      -276.8223
  11   2.0000     -10.102281      -274.8970
  12   2.0000     -10.087630      -274.4984
  13   2.0000     -10.086308      -274.4624
  14   2.0000     -10.085950      -274.4526
  15   2.0000     -10.082650      -274.3629
  16   2.0000     -10.062441      -273.8129
  17   2.0000     -10.020464      -272.6707
  18   2.0000     -10.019965      -272.6571
  19   2.0000      -7.875776      -214.3108
  20   2.0000      -7.826822      -212.9787
  21   2.0000      -6.601271      -179.6297
  22   2.0000      -5.822658      -158.4426
  23   2.0000      -5.819654      -158.3608
  24   2.0000      -5.812856      -158.1759
  25   2.0000      -5.774595      -157.1347
  26   2.0000      -5.766987      -156.9277
  27   2.0000      -5.766793      -156.9224
  28   2.0000      -4.746911      -129.1700
  29   2.0000      -4.746309      -129.1536
  30   2.0000      -4.744875      -129.1146
  31   2.0000      -1.093701       -29.7611
  32   2.0000      -1.086540       -29.5663
  33   2.0000      -1.055959       -28.7341
  34   2.0000      -1.013060       -27.5668
  35   2.0000      -1.001901       -27.2631
  36   2.0000      -0.997002       -27.1298
  37   2.0000      -0.818287       -22.2667
  38   2.0000      -0.755762       -20.5653
  39   2.0000      -0.739648       -20.1269
  40   2.0000      -0.733814       -19.9681
  41   2.0000      -0.698278       -19.0011
  42   2.0000      -0.672148       -18.2901
  43   2.0000      -0.661281       -17.9944
  44   2.0000      -0.651177       -17.7194
  45   2.0000      -0.623258       -16.9597
  46   2.0000      -0.596767       -16.2389
  47   2.0000      -0.544997       -14.8301
  48   2.0000      -0.537054       -14.6140
  49   2.0000      -0.527140       -14.3442
  50   2.0000      -0.499341       -13.5878
  51   2.0000      -0.495150       -13.4737
  52   2.0000      -0.487634       -13.2692
  53   2.0000      -0.476595       -12.9688
  54   2.0000      -0.465939       -12.6789
  55   2.0000      -0.456323       -12.4172
  56   2.0000      -0.451282       -12.2800
  57   2.0000      -0.448913       -12.2155
  58   2.0000      -0.439134       -11.9494
  59   2.0000      -0.428838       -11.6693
  60   2.0000      -0.416029       -11.3207
  61   2.0000      -0.414505       -11.2793
  62   2.0000      -0.411018       -11.1844
  63   2.0000      -0.410384       -11.1671
  64   2.0000      -0.387763       -10.5516
  65   2.0000      -0.378518       -10.3000
  66   2.0000      -0.370192       -10.0734
  67   2.0000      -0.364991        -9.9319
  68   2.0000      -0.361591        -9.8394
  69   2.0000      -0.354925        -9.6580
  70   2.0000      -0.351951        -9.5771
  71   2.0000      -0.347126        -9.4458
  72   2.0000      -0.338537        -9.2121
  73   2.0000      -0.330385        -8.9902
  74   2.0000      -0.323701        -8.8084
  75   2.0000      -0.319218        -8.6864
  76   2.0000      -0.316106        -8.6017
  77   2.0000      -0.310437        -8.4474
  78   2.0000      -0.293602        -7.9893
  79   2.0000      -0.285421        -7.7667
  80   2.0000      -0.283384        -7.7113
  81   2.0000      -0.280625        -7.6362
  82   2.0000      -0.266166        -7.2427
  83   2.0000      -0.258406        -7.0316
  84   2.0000      -0.241433        -6.5697
  85   2.0000      -0.230605        -6.2751
  86   2.0000      -0.228730        -6.2241
  87   0.0000      -0.050841        -1.3834
  88   0.0000      -0.041318        -1.1243
  89   0.0000      -0.030702        -0.8354
  90   0.0000       0.004256         0.1158
  91   0.0000       0.012501         0.3402

MULLIKEN ATOMIC CHARGES
-----------------------
   0 C :   -0.487266
   1 C :   -0.157219
   2 O :   -0.157139
   3 C :    0.320028
   4 O :   -0.469668
   5 C :   -0.351169
   6 C :   -0.071355
   7 H :    0.272563
   8 C :    0.300192
   9 O :   -0.445768
  10 O :   -0.148057
  11 C :   -0.145067
  12 C :   -0.502328
  13 S :   -0.193551
  14 P :    0.788278
  15 S :   -0.480665
  16 O :   -0.382467
  17 C :   -0.306625
  18 O :   -0.342779
  19 C :   -0.294971
  20 H :    0.167465
  21 H :    0.170792
  22 H :    0.165262
  23 H :    0.177531
  24 H :    0.181758
  25 H :    0.212971
  26 H :    0.213968
  27 H :    0.179892
  28 H :    0.182722
  29 H :    0.171100
  30 H :    0.170530
  31 H :    0.174533
  32 H :    0.177429
  33 H :    0.180845
  34 H :    0.176230
  35 H :    0.180999
  36 H :    0.186098
  37 H :    0.184908
Sum of atomic charges:    0.0000000

LOEWDIN ATOMIC CHARGES
----------------------
   0 C :   -0.388252
   1 C :    0.037612
   2 O :   -0.588107
   3 C :    0.359229
   4 O :   -0.469636
   5 C :   -0.192719
   6 C :   -0.192272
   7 H :    0.211801
   8 C :    0.326070
   9 O :   -0.463432
  10 O :   -0.618873
  11 C :    0.040147
  12 C :   -0.386758
  13 S :    0.209713
  14 P :    0.401415
  15 S :   -0.095092
  16 O :   -0.690386
  17 C :   -0.053087
  18 O :   -0.666591
  19 C :   -0.041422
  20 H :    0.163251
  21 H :    0.169195
  22 H :    0.162551
  23 H :    0.191556
  24 H :    0.187636
  25 H :    0.200425
  26 H :    0.201246
  27 H :    0.194185
  28 H :    0.192784
  29 H :    0.163933
  30 H :    0.165816
  31 H :    0.169213
  32 H :    0.177881
  33 H :    0.189518
  34 H :    0.176779
  35 H :    0.180029
  36 H :    0.182541
  37 H :    0.192100

  Mayer bond orders larger than 0.100000
B(  0-C ,  1-C ) :   0.9464 B(  0-C , 20-H ) :   0.9731 B(  0-C , 21-H ) :   0.9611
B(  0-C , 22-H ) :   0.9651 B(  1-C ,  2-O ) :   0.7603 B(  1-C , 23-H ) :   0.9528
B(  1-C , 24-H ) :   0.9341 B(  2-O ,  3-C ) :   1.0962 B(  3-C ,  4-O ) :   1.7820
B(  3-C ,  5-C ) :   0.8991 B(  5-C ,  6-C ) :   0.8672 B(  5-C , 25-H ) :   0.9855
B(  5-C , 26-H ) :   0.9313 B(  6-C ,  7-H ) :   0.9566 B(  6-C ,  8-C ) :   0.8999
B(  6-C , 13-S ) :   0.8611 B(  8-C ,  9-O ) :   1.7681 B(  8-C , 10-O ) :   1.0858
B( 10-O , 11-C ) :   0.7727 B( 11-C , 12-C ) :   0.9222 B( 11-C , 27-H ) :   0.9587
B( 11-C , 28-H ) :   0.9477 B( 12-C , 29-H ) :   0.9715 B( 12-C , 30-H ) :   0.9664
B( 12-C , 31-H ) :   0.9610 B( 13-S , 14-P ) :   1.0159 B( 14-P , 15-S ) :   1.7573
B( 14-P , 16-O ) :   1.0370 B( 14-P , 18-O ) :   1.1554 B( 16-O , 17-C ) :   0.8224
B( 17-C , 32-H ) :   0.9553 B( 17-C , 33-H ) :   0.9570 B( 17-C , 34-H ) :   0.9498
B( 18-O , 19-C ) :   0.7856 B( 19-C , 35-H ) :   0.9474 B( 19-C , 36-H ) :   0.9517
B( 19-C , 37-H ) :   0.9539

Dispersion correction           -0.017755518
FINAL SINGLE POINT ENERGY     -1981.468360265397

DIPOLE MOMENT
-------------

Method             : SCF
Type of density    : Electron Density
Multiplicity       :   1
Irrep              :   0
Energy             : -1981.4876881773120658 Eh
Relativity type    :
Basis              : AO
                                X                 Y                 Z
Electronic contribution:    -17.192997715       5.904149327      -7.338451188
Nuclear contribution   :     16.590549707      -8.538361188       9.421204695
                        -----------------------------------------
Total Dipole Moment    :     -0.602448008      -2.634211861       2.082753507
                        -----------------------------------------
Magnitude (a.u.)       :      3.411726528
Magnitude (Debye)      :      8.671919666

Rotational constants in cm-1:             0.017771             0.006053             0.005424
Rotational constants in MHz :           532.749258           181.476048           162.593680

                             ****ORCA TERMINATED NORMALLY****
TOTAL RUN TIME: 0 days 0 hours 1 minutes 47 seconds 206 msec
