                         Program Version 6.0.0  -   RELEASE  -
|  1> ! wb97x-v def2-tzvp def2/J RIJCOSX DEFGRID2 scfconv7 GCP(DFT/TZ) printgap
|  2> %output
|  3>     printlevel normal
|  4> end
|  5> * xyz 0 1
|  6> C 0.6379948507163586 1.6949778310991184 -0.02997557389341079
|  7> C 1.3965412554332464 0.39215679684583904 -0.2390972965371448
|  8> H 1.602381523244261 0.25675019432943097 -1.3132570798585186
|  9> C 0.5470783276031188 -0.7761998696335871 0.24830474638940556
| 10> H 0.4110129687021429 -0.6997678068282496 1.3332913838321474
| 11> C -0.8095462923236015 -0.7382848497635934 -0.4526144908220763
| 12> H -0.6447797997882585 -0.8506241276620443 -1.535840834526971
| 13> C -1.489801129173058 0.614855447524303 -0.25039324172915955
| 14> H -2.3839383584432565 0.6941531671145823 -0.8793664360105575
| 15> O -0.6309621035021082 1.656090677419732 -0.7075329798438499
| 16> O -1.824284629804449 0.7534304985150101 1.114873310229957
| 17> O -1.686787610591419 -1.7604140279951959 0.020245719762841792
| 18> O 1.2013389309632225 -2.0341086345860453 0.03046509668183913
| 19> O 2.622787878169978 0.4980241129474624 0.4903838696234664
| 20> H 1.1859453869061056 2.534437441698036 -0.46350294714953755
| 21> H 0.4995496037001934 1.8779425545232036 1.043773648688257
| 22> H -2.436590621917761 1.497760092807662 1.1925702952939743
| 23> H -1.238998009529329 -2.6040425835249463 -0.13144930282342307
| 24> H 1.3303077776627381 -2.13455626794624 -0.9245231828208478
| 25> H 3.09230743057896 -0.3401643892064217 0.37994291078529246
| 26> *
| 27>
| 28>                          ****END OF INPUT****

CARTESIAN COORDINATES (ANGSTROEM)
---------------------------------
  C      0.637995    1.694978   -0.029976
  C      1.396541    0.392157   -0.239097
  H      1.602382    0.256750   -1.313257
  C      0.547078   -0.776200    0.248305
  H      0.411013   -0.699768    1.333291
  C     -0.809546   -0.738285   -0.452614
  H     -0.644780   -0.850624   -1.535841
  C     -1.489801    0.614855   -0.250393
  H     -2.383938    0.694153   -0.879366
  O     -0.630962    1.656091   -0.707533
  O     -1.824285    0.753430    1.114873
  O     -1.686788   -1.760414    0.020246
  O      1.201339   -2.034109    0.030465
  O      2.622788    0.498024    0.490384
  H      1.185945    2.534437   -0.463503
  H      0.499550    1.877943    1.043774
  H     -2.436591    1.497760    1.192570
  H     -1.238998   -2.604043   -0.131449
  H      1.330308   -2.134556   -0.924523
  H      3.092307   -0.340164    0.379943

 Total Charge           Charge          ....    0
 Multiplicity           Mult            ....    1
 Number of Electrons    NEL             ....   80
 Basis Dimension        Dim             ....  370

ORBITAL ENERGIES
----------------

  NO   OCC          E(Eh)            E(eV)
   0   2.0000     -21.697435      -590.4172
   1   2.0000     -21.689734      -590.2077
   2   2.0000     -21.688057      -590.1620
   3   2.0000     -21.681334      -589.9791
   4   2.0000     -21.678832      -589.9110
   5   2.0000     -12.157233      -330.8151
   6   2.0000     -12.111915      -329.5820
   7   2.0000     -12.109624      -329.5196
   8   2.0000     -12.106803      -329.4429
   9   2.0000     -12.099151      -329.2346
  10   2.0000      -1.719453       -46.7887
  11   2.0000      -1.699917       -46.2571
  12   2.0000      -1.683911       -45.8216
  13   2.0000      -1.680290       -45.7230
  14   2.0000      -1.675597       -45.5953
  15   2.0000      -1.334927       -36.3252
  16   2.0000      -1.308373       -35.6026
  17   2.0000      -1.203287       -32.7431
  18   2.0000      -1.189510       -32.3682
  19   2.0000      -1.133671       -30.8488
  20   2.0000      -1.085734       -29.5443
  21   2.0000      -1.068521       -29.0759
  22   2.0000      -1.047787       -28.5117
  23   2.0000      -1.022196       -27.8154
  24   2.0000      -1.015823       -27.6419
  25   2.0000      -0.997343       -27.1391
  26   2.0000      -0.983832       -26.7714
  27   2.0000      -0.981776       -26.7155
  28   2.0000      -0.971573       -26.4378
  29   2.0000      -0.955678       -26.0053
  30   2.0000      -0.940003       -25.5788
  31   2.0000      -0.927416       -25.2363
  32   2.0000      -0.916704       -24.9448
  33   2.0000      -0.900643       -24.5077
  34   2.0000      -0.883393       -24.0384
  35   2.0000      -0.846278       -23.0284
  36   2.0000      -0.833978       -22.6937
  37   2.0000      -0.824408       -22.4333
  38   2.0000      -0.801005       -21.7965
  39   2.0000      -0.779367       -21.2076
  40   0.0000      -0.238471        -6.4891
  41   0.0000      -0.171556        -4.6683
  42   0.0000      -0.163787        -4.4569
  43   0.0000      -0.158542        -4.3142
  44   0.0000      -0.124343        -3.3835

MULLIKEN ATOMIC CHARGES
-----------------------
   0 C :   -0.002961
   1 C :    0.019695
   2 H :    0.063941
   3 C :    0.007273
   4 H :    0.116580
   5 C :    0.059187
   6 H :    0.069484
   7 C :    0.108728
   8 H :    0.101101
   9 O :   -0.291963
  10 O :   -0.405984
  11 O :   -0.420005
  12 O :   -0.447016
  13 O :   -0.430328
  14 H :    0.122717
  15 H :    0.103031
  16 H :    0.308918
  17 H :    0.307625
  18 H :    0.299651
  19 H :    0.310328
Sum of atomic charges:    0.0000000

LOEWDIN ATOMIC CHARGES
----------------------
   0 C :   -0.266454
   1 C :   -0.339130
   2 H :    0.132558
   3 C :   -0.315156
   4 H :    0.158388
   5 C :   -0.321136
   6 H :    0.138872
   7 C :   -0.404338
   8 H :    0.132230
   9 O :    0.160115
  10 O :    0.011534
  11 O :   -0.004629
  12 O :   -0.023765
  13 O :   -0.013443
  14 H :    0.131686
  15 H :    0.129324
  16 H :    0.178135
  17 H :    0.172567
  18 H :    0.169243
  19 H :    0.173398

  Mayer bond orders larger than 0.100000
B(  0-C ,  1-C ) :   0.9596 B(  0-C ,  9-O ) :   0.9773 B(  0-C , 14-H ) :   0.9636
B(  0-C , 15-H ) :   0.9661 B(  1-C ,  2-H ) :   0.9517 B(  1-C ,  3-C ) :   1.0062
B(  1-C , 13-O ) :   1.0925 B(  3-C ,  4-H ) :   0.9415 B(  3-C ,  5-C ) :   1.0141
B(  3-C , 12-O ) :   0.9805 B(  5-C ,  6-H ) :   0.9423 B(  5-C ,  7-C ) :   0.9543
B(  5-C , 11-O ) :   1.0705 B(  7-C ,  8-H ) :   0.9541 B(  7-C ,  9-O ) :   1.0484
B(  7-C , 10-O ) :   1.2540 B( 10-O , 16-H ) :   0.8932 B( 11-O , 17-H ) :   0.8876
B( 12-O , 18-H ) :   0.8942 B( 13-O , 19-H ) :   0.8890

FINAL SINGLE POINT ENERGY      -572.702017637998

DIPOLE MOMENT
-------------

Method             : SCF
Type of density    : Electron Density
Multiplicity       :   1
Irrep              :   0
Energy             :  -572.7176193066978840 Eh
Relativity type    :
Basis              : AO
                                X                 Y                 Z
Electronic contribution:     -1.241900531      -0.328520305       0.607821411
Nuclear contribution   :      1.341719163       0.185153884      -1.529815549
                        -----------------------------------------
Total Dipole Moment    :      0.099818632      -0.143366421      -0.921994137
                        -----------------------------------------
Magnitude (a.u.)       :      0.938398039
Magnitude (Debye)      :      2.385218259

Rotational constants in cm-1:             0.056249             0.044252             0.028706
Rotational constants in MHz :          1686.317250          1326.638643           860.585456

                             ****ORCA TERMINATED NORMALLY****
TOTAL RUN TIME: 0 days 0 hours 4 minutes 7 seconds 139 msec
