                         Program Version 6.0.0  -   RELEASE  -
|  1> ! wb97x-v def2-tzvp def2/J RIJCOSX DEFGRID2 scfconv7 GCP(DFT/TZ) printgap
|  2> %output
|  3>     printlevel normal
|  4> end
|  5> %cpcm
|  6>     smd true
|  7>     smdsolvent "water"
|  8> end
|  9> * xyz 0 1
| 10> C 0.6379948507163586 1.6949778310991184 -0.02997557389341079
| 11> C 1.3965412554332464 0.39215679684583904 -0.2390972965371448
| 12> H 1.602381523244261 0.25675019432943097 -1.3132570798585186
| 13> C 0.5470783276031188 -0.7761998696335871 0.24830474638940556
| 14> H 0.4110129687021429 -0.6997678068282496 1.3332913838321474
| 15> C -0.8095462923236015 -0.7382848497635934 -0.4526144908220763
| 16> H -0.6447797997882585 -0.8506241276620443 -1.535840834526971
| 17> C -1.489801129173058 0.614855447524303 -0.25039324172915955
| 18> H -2.3839383584432565 0.6941531671145823 -0.8793664360105575
| 19> O -0.6309621035021082 1.656090677419732 -0.7075329798438499
| 20> O -1.824284629804449 0.7534304985150101 1.114873310229957
| 21> O -1.686787610591419 -1.7604140279951959 0.020245719762841792
| 22> O 1.2013389309632225 -2.0341086345860453 0.03046509668183913
| 23> O 2.622787878169978 0.4980241129474624 0.4903838696234664
| 24> H 1.1859453869061056 2.534437441698036 -0.46350294714953755
| 25> H 0.4995496037001934 1.8779425545232036 1.043773648688257
| 26> H -2.436590621917761 1.497760092807662 1.1925702952939743
| 27> H -1.238998009529329 -2.6040425835249463 -0.13144930282342307
| 28> H 1.3303077776627381 -2.13455626794624 -0.9245231828208478
| 29> H 3.09230743057896 -0.3401643892064217 0.37994291078529246
| 30> *
| 31>
| 32>                          ****END OF INPUT****

CARTESIAN COORDINATES (ANGSTROEM)
---------------------------------
  C      0.637995    1.694978   -0.029976
  C      1.396541    0.392157   -0.239097
  H      1.602382    0.256750   -1.313257
  C      0.547078   -0.776200    0.248305
  H      0.411013   -0.699768    1.333291
  C     -0.809546   -0.738285   -0.452614
  H     -0.644780   -0.850624   -1.535841
  C     -1.489801    0.614855   -0.250393
  H     -2.383938    0.694153   -0.879366
  O     -0.630962    1.656091   -0.707533
  O     -1.824285    0.753430    1.114873
  O     -1.686788   -1.760414    0.020246
  O      1.201339   -2.034109    0.030465
  O      2.622788    0.498024    0.490384
  H      1.185945    2.534437   -0.463503
  H      0.499550    1.877943    1.043774
  H     -2.436591    1.497760    1.192570
  H     -1.238998   -2.604043   -0.131449
  H      1.330308   -2.134556   -0.924523
  H      3.092307   -0.340164    0.379943

 Total Charge           Charge          ....    0
 Multiplicity           Mult            ....    1
 Number of Electrons    NEL             ....   80
 Basis Dimension        Dim             ....  370

ORBITAL ENERGIES
----------------

  NO   OCC          E(Eh)            E(eV)
   0   2.0000     -21.691631      -590.2593
   1   2.0000     -21.686927      -590.1313
   2   2.0000     -21.683712      -590.0438
   3   2.0000     -21.681395      -589.9808
   4   2.0000     -21.680824      -589.9652
   5   2.0000     -12.151396      -330.6563
   6   2.0000     -12.102683      -329.3308
   7   2.0000     -12.100206      -329.2633
   8   2.0000     -12.098807      -329.2253
   9   2.0000     -12.093096      -329.0699
  10   2.0000      -1.719343       -46.7857
  11   2.0000      -1.689892       -45.9843
  12   2.0000      -1.684599       -45.8403
  13   2.0000      -1.678101       -45.6635
  14   2.0000      -1.676008       -45.6065
  15   2.0000      -1.327495       -36.1230
  16   2.0000      -1.304071       -35.4856
  17   2.0000      -1.196765       -32.5656
  18   2.0000      -1.186435       -32.2845
  19   2.0000      -1.129771       -30.7426
  20   2.0000      -1.081457       -29.4279
  21   2.0000      -1.065027       -28.9809
  22   2.0000      -1.046274       -28.4706
  23   2.0000      -1.019742       -27.7486
  24   2.0000      -1.014287       -27.6002
  25   2.0000      -0.996286       -27.1103
  26   2.0000      -0.982898       -26.7460
  27   2.0000      -0.977398       -26.5963
  28   2.0000      -0.969621       -26.3847
  29   2.0000      -0.955632       -26.0041
  30   2.0000      -0.941011       -25.6062
  31   2.0000      -0.924152       -25.1474
  32   2.0000      -0.916219       -24.9316
  33   2.0000      -0.900711       -24.5096
  34   2.0000      -0.879918       -23.9438
  35   2.0000      -0.841966       -22.9110
  36   2.0000      -0.828823       -22.5534
  37   2.0000      -0.818246       -22.2656
  38   2.0000      -0.794040       -21.6069
  39   2.0000      -0.771277       -20.9875
  40   0.0000      -0.233214        -6.3461
  41   0.0000      -0.167889        -4.5685
  42   0.0000      -0.158413        -4.3106
  43   0.0000      -0.149670        -4.0727
  44   0.0000      -0.116675        -3.1749

MULLIKEN ATOMIC CHARGES
-----------------------
   0 C :   -0.036316
   1 C :    0.027112
   2 H :    0.109035
   3 C :    0.060215
   4 H :    0.113934
   5 C :    0.065580
   6 H :    0.116568
   7 C :    0.140004
   8 H :    0.138132
   9 O :   -0.358272
  10 O :   -0.502032
  11 O :   -0.527763
  12 O :   -0.532822
  13 O :   -0.530573
  14 H :    0.149651
  15 H :    0.114995
  16 H :    0.368339
  17 H :    0.360644
  18 H :    0.363422
  19 H :    0.360148
Sum of atomic charges:    0.0000000

LOEWDIN ATOMIC CHARGES
----------------------
   0 C :   -0.270333
   1 C :   -0.328618
   2 H :    0.148155
   3 C :   -0.314587
   4 H :    0.154498
   5 C :   -0.311808
   6 H :    0.155638
   7 C :   -0.400080
   8 H :    0.142690
   9 O :    0.138489
  10 O :   -0.019685
  11 O :   -0.044758
  12 O :   -0.048555
  13 O :   -0.048085
  14 H :    0.137090
  15 H :    0.130000
  16 H :    0.200102
  17 H :    0.191611
  18 H :    0.197242
  19 H :    0.190994

  Mayer bond orders larger than 0.100000
B(  0-C ,  1-C ) :   0.9551 B(  0-C ,  9-O ) :   0.9529 B(  0-C , 14-H ) :   0.9593
B(  0-C , 15-H ) :   0.9667 B(  1-C ,  2-H ) :   0.9690 B(  1-C ,  3-C ) :   0.9925
B(  1-C , 13-O ) :   1.0442 B(  3-C ,  4-H ) :   0.9406 B(  3-C ,  5-C ) :   1.0019
B(  3-C , 12-O ) :   0.9989 B(  5-C ,  6-H ) :   0.9542 B(  5-C ,  7-C ) :   0.9467
B(  5-C , 11-O ) :   1.0168 B(  7-C ,  8-H ) :   0.9613 B(  7-C ,  9-O ) :   1.0220
B(  7-C , 10-O ) :   1.1810 B( 10-O , 16-H ) :   0.8559 B( 11-O , 17-H ) :   0.8575
B( 12-O , 18-H ) :   0.8592 B( 13-O , 19-H ) :   0.8594

FINAL SINGLE POINT ENERGY      -572.736547255024

DIPOLE MOMENT
-------------

Method             : SCF
Type of density    : Electron Density
Multiplicity       :   1
Irrep              :   0
Energy             :  -572.7521489237235528 Eh
Relativity type    :
Basis              : AO
                                X                 Y                 Z
Electronic contribution:     -1.124557299      -0.433386315       0.044682962
Nuclear contribution   :      1.341719163       0.185153884      -1.529815549
                        -----------------------------------------
Total Dipole Moment    :      0.217161864      -0.248232431      -1.485132586
                        -----------------------------------------
Magnitude (a.u.)       :      1.521314370
Magnitude (Debye)      :      3.866873824

Rotational constants in cm-1:             0.056249             0.044252             0.028706
Rotational constants in MHz :          1686.317250          1326.638643           860.585456

                             ****ORCA TERMINATED NORMALLY****
TOTAL RUN TIME: 0 days 0 hours 4 minutes 10 seconds 995 msec
