                         Program Version 6.0.0  -   RELEASE  -
|  1> ! pbe def2-sv(p) def2/J RI DEFGRID1 loosescf d4 GCP(DFT/SV(P)) printgap
|  2> %output
|  3>     printlevel normal
|  4> end
|  5> * xyz 0 1
|  6> C 2.6720675661 -0.8159568947 3.6031303189
|  7> C 1.8582691232 -0.5707533768 2.349113677
|  8> O 2.6783822571 -0.9243502471 1.218822325
|  9> P 2.1178695004 -0.8945029493 -0.2700441054
| 10> S 0.4801015262 -1.9216893664 -0.5637335876
| 11> O 3.3205129783 -1.4590268293 -1.1068175262
| 12> C 4.6436850682 -0.8624822477 -1.1266210817
| 13> C 5.5400602343 -1.48789305 -0.0783414527
| 14> S 2.0647028814 1.1958960084 -0.7502151632
| 15> C 0.3017148264 1.3940634001 -1.0439927027
| 16> S -0.656119687 1.2582508492 0.5018139821
| 17> P -2.5133090979 0.6412568107 -0.3446227482
| 18> S -2.4468819687 -0.0866040336 -2.1587408227
| 19> O -3.4475243398 1.9081138863 -0.3283507222
| 20> C -3.6811224733 2.7247478982 0.8492611089
| 21> C -2.9882896568 4.0644400872 0.6980042229
| 22> O -3.1618753885 -0.2208709343 0.823577213
| 23> C -2.6454875909 -1.4577410759 1.34321036
| 24> C -3.0124536982 -2.6345594885 0.4626018636
| 25> H 2.069655121 -0.5688247446 4.4708128281
| 26> H 2.9682915582 -1.8596699585 3.6566760618
| 27> H 3.56282163 -0.1947773786 3.5962575305
| 28> H 1.5672416604 0.4805517495 2.2575558386
| 29> H 0.9557630924 -1.1897484173 2.3270322639
| 30> H 5.0094488612 -1.0624095943 -2.1352682914
| 31> H 4.5454136031 0.2162109193 -0.9762115597
| 32> H 6.5376931641 -1.0706272822 -0.1732519661
| 33> H 5.1577564407 -1.2835140528 0.9175457444
| 34> H 5.5859882995 -2.5639150843 -0.2222381347
| 35> H -0.0594110065 0.6263288849 -1.7338159404
| 36> H 0.1754038555 2.3894456538 -1.4632757503
| 37> H -4.7648279587 2.8398529625 0.8974504379
| 38> H -3.3282680059 2.1901568679 1.7334989745
| 39> H -1.9085731623 3.9373452858 0.6925414771
| 40> H -3.2937419025 4.5369520402 -0.2314198576
| 41> H -3.2649018174 4.701717985 1.5318210029
| 42> H -1.5595122424 -1.3809361104 1.4434172963
| 43> H -3.1057537392 -1.5392860629 2.3296820801
| 44> H -2.496617187 -2.563284096 -0.4935043461
| 45> H -2.7085257418 -3.5549114917 0.950433145
| 46> H -4.0842106012 -2.6527102287 0.2844089691
| 47> *
| 48>
| 49>                          ****END OF INPUT****

CARTESIAN COORDINATES (ANGSTROEM)
---------------------------------
  C      2.672068   -0.815957    3.603130
  C      1.858269   -0.570753    2.349114
  O      2.678382   -0.924350    1.218822
  P      2.117870   -0.894503   -0.270044
  S      0.480102   -1.921689   -0.563734
  O      3.320513   -1.459027   -1.106818
  C      4.643685   -0.862482   -1.126621
  C      5.540060   -1.487893   -0.078341
  S      2.064703    1.195896   -0.750215
  C      0.301715    1.394063   -1.043993
  S     -0.656120    1.258251    0.501814
  P     -2.513309    0.641257   -0.344623
  S     -2.446882   -0.086604   -2.158741
  O     -3.447524    1.908114   -0.328351
  C     -3.681122    2.724748    0.849261
  C     -2.988290    4.064440    0.698004
  O     -3.161875   -0.220871    0.823577
  C     -2.645488   -1.457741    1.343210
  C     -3.012454   -2.634559    0.462602
  H      2.069655   -0.568825    4.470813
  H      2.968292   -1.859670    3.656676
  H      3.562822   -0.194777    3.596258
  H      1.567242    0.480552    2.257556
  H      0.955763   -1.189748    2.327032
  H      5.009449   -1.062410   -2.135268
  H      4.545414    0.216211   -0.976212
  H      6.537693   -1.070627   -0.173252
  H      5.157756   -1.283514    0.917546
  H      5.585988   -2.563915   -0.222238
  H     -0.059411    0.626329   -1.733816
  H      0.175404    2.389446   -1.463276
  H     -4.764828    2.839853    0.897450
  H     -3.328268    2.190157    1.733499
  H     -1.908573    3.937345    0.692541
  H     -3.293742    4.536952   -0.231420
  H     -3.264902    4.701718    1.531821
  H     -1.559512   -1.380936    1.443417
  H     -3.105754   -1.539286    2.329682
  H     -2.496617   -2.563284   -0.493504
  H     -2.708526   -3.554911    0.950433
  H     -4.084211   -2.652710    0.284409

 Total Charge           Charge          ....    0
 Multiplicity           Mult            ....    1
 Number of Electrons    NEL             ....  202
 Basis Dimension        Dim             ....  334

ORBITAL ENERGIES
----------------

  NO   OCC          E(Eh)            E(eV)
   0   2.0000     -88.046488     -2395.8667
   1   2.0000     -88.040643     -2395.7077
   2   2.0000     -87.984520     -2394.1805
   3   2.0000     -87.979377     -2394.0406
   4   2.0000     -76.427063     -2079.6861
   5   2.0000     -76.422040     -2079.5494
   6   2.0000     -18.795996      -511.4650
   7   2.0000     -18.793793      -511.4051
   8   2.0000     -18.790033      -511.3028
   9   2.0000     -18.785191      -511.1710
  10   2.0000      -9.963180      -271.1119
  11   2.0000      -9.955192      -270.8945
  12   2.0000      -9.954751      -270.8825
  13   2.0000      -9.952700      -270.8267
  14   2.0000      -9.948575      -270.7145
  15   2.0000      -9.892411      -269.1862
  16   2.0000      -9.890408      -269.1317
  17   2.0000      -9.885523      -268.9987
  18   2.0000      -9.872881      -268.6547
  19   2.0000      -7.691431      -209.2945
  20   2.0000      -7.685072      -209.1214
  21   2.0000      -7.629497      -207.6092
  22   2.0000      -7.624626      -207.4766
  23   2.0000      -6.424711      -174.8253
  24   2.0000      -6.419363      -174.6797
  25   2.0000      -5.719328      -155.6308
  26   2.0000      -5.715811      -155.5351
  27   2.0000      -5.712828      -155.4540
  28   2.0000      -5.709730      -155.3697
  29   2.0000      -5.708578      -155.3383
  30   2.0000      -5.702113      -155.1624
  31   2.0000      -5.658600      -153.9783
  32   2.0000      -5.653745      -153.8462
  33   2.0000      -5.649872      -153.7408
  34   2.0000      -5.649688      -153.7358
  35   2.0000      -5.645106      -153.6111
  36   2.0000      -5.644658      -153.5990
  37   2.0000      -4.647444      -126.4634
  38   2.0000      -4.646491      -126.4375
  39   2.0000      -4.644970      -126.3961
  40   2.0000      -4.642083      -126.3175
  41   2.0000      -4.641294      -126.2960
  42   2.0000      -4.639581      -126.2494
  43   2.0000      -0.991409       -26.9776
  44   2.0000      -0.984253       -26.7829
  45   2.0000      -0.948684       -25.8150
  46   2.0000      -0.939804       -25.5734
  47   2.0000      -0.761663       -20.7259
  48   2.0000      -0.723047       -19.6751
  49   2.0000      -0.713067       -19.4035
  50   2.0000      -0.696532       -18.9536
  51   2.0000      -0.685034       -18.6407
  52   2.0000      -0.674674       -18.3588
  53   2.0000      -0.648884       -17.6570
  54   2.0000      -0.634310       -17.2604
  55   2.0000      -0.592511       -16.1230
  56   2.0000      -0.584043       -15.8926
  57   2.0000      -0.573733       -15.6121
  58   2.0000      -0.572637       -15.5823
  59   2.0000      -0.565643       -15.3919
  60   2.0000      -0.511451       -13.9173
  61   2.0000      -0.500275       -13.6132
  62   2.0000      -0.487104       -13.2548
  63   2.0000      -0.472799       -12.8655
  64   2.0000      -0.449775       -12.2390
  65   2.0000      -0.446086       -12.1386
  66   2.0000      -0.444647       -12.0995
  67   2.0000      -0.437868       -11.9150
  68   2.0000      -0.433870       -11.8062
  69   2.0000      -0.417981       -11.3738
  70   2.0000      -0.408315       -11.1108
  71   2.0000      -0.397798       -10.8246
  72   2.0000      -0.392014       -10.6672
  73   2.0000      -0.389988       -10.6121
  74   2.0000      -0.383196       -10.4273
  75   2.0000      -0.365564        -9.9475
  76   2.0000      -0.359387        -9.7794
  77   2.0000      -0.356958        -9.7133
  78   2.0000      -0.355443        -9.6721
  79   2.0000      -0.351811        -9.5733
  80   2.0000      -0.350097        -9.5266
  81   2.0000      -0.348473        -9.4824
  82   2.0000      -0.345455        -9.4003
  83   2.0000      -0.338299        -9.2056
  84   2.0000      -0.327725        -8.9179
  85   2.0000      -0.321314        -8.7434
  86   2.0000      -0.312258        -8.4970
  87   2.0000      -0.301252        -8.1975
  88   2.0000      -0.295348        -8.0368
  89   2.0000      -0.292636        -7.9630
  90   2.0000      -0.289085        -7.8664
  91   2.0000      -0.279662        -7.6100
  92   2.0000      -0.272457        -7.4139
  93   2.0000      -0.263613        -7.1733
  94   2.0000      -0.257102        -6.9961
  95   2.0000      -0.239470        -6.5163
  96   2.0000      -0.220461        -5.9991
  97   2.0000      -0.209271        -5.6946
  98   2.0000      -0.196869        -5.3571
  99   2.0000      -0.194289        -5.2869
 100   2.0000      -0.189007        -5.1431
 101   0.0000      -0.046976        -1.2783
 102   0.0000      -0.033083        -0.9002
 103   0.0000      -0.013617        -0.3706
 104   0.0000       0.006643         0.1808
 105   0.0000       0.014540         0.3956

MULLIKEN ATOMIC CHARGES
-----------------------
   0 C :   -0.275298
   1 C :   -0.035124
   2 O :   -0.381805
   3 P :    0.602397
   4 S :   -0.299430
   5 O :   -0.350561
   6 C :   -0.022305
   7 C :   -0.293700
   8 S :   -0.137216
   9 C :   -0.326256
  10 S :   -0.142262
  11 P :    0.611166
  12 S :   -0.291670
  13 O :   -0.356824
  14 C :   -0.008386
  15 C :   -0.287338
  16 O :   -0.378285
  17 C :   -0.036624
  18 C :   -0.302804
  19 H :    0.111673
  20 H :    0.120079
  21 H :    0.116338
  22 H :    0.107710
  23 H :    0.122022
  24 H :    0.117133
  25 H :    0.112165
  26 H :    0.111118
  27 H :    0.126375
  28 H :    0.122809
  29 H :    0.212706
  30 H :    0.179825
  31 H :    0.111296
  32 H :    0.099952
  33 H :    0.116463
  34 H :    0.120053
  35 H :    0.107262
  36 H :    0.135015
  37 H :    0.098229
  38 H :    0.144422
  39 H :    0.106237
  40 H :    0.113442
Sum of atomic charges:    0.0000000

LOEWDIN ATOMIC CHARGES
----------------------
   0 C :   -0.350505
   1 C :   -0.123192
   2 O :   -0.250070
   3 P :    0.565061
   4 S :   -0.286332
   5 O :   -0.231848
   6 C :   -0.111129
   7 C :   -0.360743
   8 S :    0.058123
   9 C :   -0.477512
  10 S :    0.053236
  11 P :    0.563556
  12 S :   -0.283109
  13 O :   -0.239859
  14 C :   -0.112896
  15 C :   -0.360641
  16 O :   -0.243661
  17 C :   -0.120554
  18 C :   -0.363889
  19 H :    0.130907
  20 H :    0.128438
  21 H :    0.125773
  22 H :    0.101611
  23 H :    0.109540
  24 H :    0.124862
  25 H :    0.105311
  26 H :    0.130240
  27 H :    0.126514
  28 H :    0.130721
  29 H :    0.124329
  30 H :    0.134284
  31 H :    0.122001
  32 H :    0.106005
  33 H :    0.118775
  34 H :    0.129022
  35 H :    0.128454
  36 H :    0.103962
  37 H :    0.114791
  38 H :    0.125633
  39 H :    0.128997
  40 H :    0.125795

  Mayer bond orders larger than 0.100000
B(  0-C ,  1-C ) :   1.1563 B(  0-C , 19-H ) :   0.9421 B(  0-C , 20-H ) :   0.9502
B(  0-C , 21-H ) :   0.9499 B(  1-C ,  2-O ) :   0.9080 B(  1-C , 22-H ) :   0.9157
B(  1-C , 23-H ) :   0.9147 B(  2-O ,  3-P ) :   1.0710 B(  3-P ,  4-S ) :   1.6686
B(  3-P ,  5-O ) :   1.1553 B(  3-P ,  8-S ) :   0.9270 B(  4-S ,  8-S ) :   0.1146
B(  5-O ,  6-C ) :   0.8924 B(  6-C ,  7-C ) :   1.1641 B(  6-C , 24-H ) :   0.9356
B(  6-C , 25-H ) :   0.9151 B(  7-C , 26-H ) :   0.9387 B(  7-C , 27-H ) :   0.9391
B(  7-C , 28-H ) :   0.9462 B(  8-S ,  9-C ) :   1.0136 B(  9-C , 10-S ) :   0.9834
B(  9-C , 29-H ) :   0.8481 B(  9-C , 30-H ) :   0.9086 B( 10-S , 11-P ) :   0.9273
B( 10-S , 12-S ) :   0.1170 B( 11-P , 12-S ) :   1.6650 B( 11-P , 13-O ) :   1.1352
B( 11-P , 16-O ) :   1.0971 B( 13-O , 14-C ) :   0.8930 B( 14-C , 15-C ) :   1.1633
B( 14-C , 31-H ) :   0.9349 B( 14-C , 32-H ) :   0.9181 B( 15-C , 33-H ) :   0.9379
B( 15-C , 34-H ) :   0.9464 B( 15-C , 35-H ) :   0.9404 B( 16-O , 17-C ) :   0.9054
B( 17-C , 18-C ) :   1.1727 B( 17-C , 36-H ) :   0.9020 B( 17-C , 37-H ) :   0.9347
B( 18-C , 38-H ) :   0.9299 B( 18-C , 39-H ) :   0.9381 B( 18-C , 40-H ) :   0.9465

Dispersion correction           -0.063951833
FINAL SINGLE POINT ENERGY     -2929.515488033208

DIPOLE MOMENT
-------------

Method             : SCF
Type of density    : Electron Density
Multiplicity       :   1
Irrep              :   0
Energy             : -2929.6355208515169579 Eh
Relativity type    :
Basis              : AO
                                X                 Y                 Z
Electronic contribution:     -6.375920185       0.224236558     -17.257004731
Nuclear contribution   :      7.454086578       0.610178277      19.088796223
                        -----------------------------------------
Total Dipole Moment    :      1.078166393       0.834414835       1.831791492
                        -----------------------------------------
Magnitude (a.u.)       :      2.283451545
Magnitude (Debye)      :      5.804072570

Rotational constants in cm-1:             0.012376             0.004613             0.004464
Rotational constants in MHz :           371.023179           138.284304           133.824268

                             ****ORCA TERMINATED NORMALLY****
TOTAL RUN TIME: 0 days 0 hours 0 minutes 20 seconds 121 msec
