                         Program Version 6.0.0  -   RELEASE  -
|  1> ! pbe def2-sv(p) def2/J RI DEFGRID1 loosescf d4 GCP(DFT/SV(P)) printgap
|  2> %output
|  3>     printlevel normal
|  4> end
|  5> * xyz 0 1
|  6> C -2.5161612505 0.7843430712 -0.0002328463
|  7> C -1.2128242432 0.0373356276 -5.13068e-05
|  8> C -1.2349387205 -1.3518610676 2.31485e-05
|  9> C -0.0629881287 -2.0835965962 0.000131215
| 10> C 1.1514877212 -1.4242600498 7.03321e-05
| 11> C 1.2034235454 -0.0375933529 -1.94961e-05
| 12> C 0.0160288158 0.7024833022 -1.23782e-05
| 13> C 0.1011355812 2.2010329776 0.0003385806
| 14> C 2.5327391181 0.6554484995 -0.0002644568
| 15> H -2.601120267 1.4154357165 -0.8835433472
| 16> H -3.3483114879 0.0849836628 -0.00021757
| 17> H -2.6012582082 1.415683375 0.8828727323
| 18> H -2.1853607816 -1.866703556 9.13987e-05
| 19> H -0.0962935212 -3.1633143444 0.0003772941
| 20> H 2.0713375375 -1.9918720075 0.0001740698
| 21> H 0.6468741437 2.5459390812 -0.8770509654
| 22> H -0.8786355567 2.6635205007 -0.0021005661
| 23> H 0.6422657897 2.5455662526 0.8807744813
| 24> H 3.3412887151 -0.0707977089 0.0008110846
| 25> H 2.6365835299 1.2882707424 -0.8805888872
| 26> H 2.6359635789 1.2903419655 0.8786053396
| 27> *
| 28>
| 29>                          ****END OF INPUT****

CARTESIAN COORDINATES (ANGSTROEM)
---------------------------------
  C     -2.516161    0.784343   -0.000233
  C     -1.212824    0.037336   -0.000051
  C     -1.234939   -1.351861    0.000023
  C     -0.062988   -2.083597    0.000131
  C      1.151488   -1.424260    0.000070
  C      1.203424   -0.037593   -0.000019
  C      0.016029    0.702483   -0.000012
  C      0.101136    2.201033    0.000339
  C      2.532739    0.655448   -0.000264
  H     -2.601120    1.415436   -0.883543
  H     -3.348311    0.084984   -0.000218
  H     -2.601258    1.415683    0.882873
  H     -2.185361   -1.866704    0.000091
  H     -0.096294   -3.163314    0.000377
  H      2.071338   -1.991872    0.000174
  H      0.646874    2.545939   -0.877051
  H     -0.878636    2.663521   -0.002101
  H      0.642266    2.545566    0.880774
  H      3.341289   -0.070798    0.000811
  H      2.636584    1.288271   -0.880589
  H      2.635964    1.290342    0.878605

 Total Charge           Charge          ....    0
 Multiplicity           Mult            ....    1
 Number of Electrons    NEL             ....   66
 Basis Dimension        Dim             ....  150

ORBITAL ENERGIES
----------------

  NO   OCC          E(Eh)            E(eV)
   0   2.0000      -9.893699      -269.2212
   1   2.0000      -9.893121      -269.2055
   2   2.0000      -9.892684      -269.1936
   3   2.0000      -9.880658      -268.8664
   4   2.0000      -9.879997      -268.8484
   5   2.0000      -9.879698      -268.8403
   6   2.0000      -9.877768      -268.7877
   7   2.0000      -9.877248      -268.7736
   8   2.0000      -9.877114      -268.7699
   9   2.0000      -0.776203       -21.1216
  10   2.0000      -0.701179       -19.0801
  11   2.0000      -0.694126       -18.8881
  12   2.0000      -0.638982       -17.3876
  13   2.0000      -0.601327       -16.3629
  14   2.0000      -0.595854       -16.2140
  15   2.0000      -0.508710       -13.8427
  16   2.0000      -0.506469       -13.7817
  17   2.0000      -0.438562       -11.9339
  18   2.0000      -0.429351       -11.6832
  19   2.0000      -0.394925       -10.7465
  20   2.0000      -0.379252       -10.3200
  21   2.0000      -0.370010       -10.0685
  22   2.0000      -0.356712        -9.7066
  23   2.0000      -0.352408        -9.5895
  24   2.0000      -0.352341        -9.5877
  25   2.0000      -0.349437        -9.5087
  26   2.0000      -0.340978        -9.2785
  27   2.0000      -0.324036        -8.8175
  28   2.0000      -0.301135        -8.1943
  29   2.0000      -0.285569        -7.7707
  30   2.0000      -0.282490        -7.6869
  31   2.0000      -0.208259        -5.6670
  32   2.0000      -0.206790        -5.6270
  33   0.0000      -0.024949        -0.6789
  34   0.0000      -0.019849        -0.5401
  35   0.0000       0.038449         1.0462
  36   0.0000       0.054724         1.4891
  37   0.0000       0.063204         1.7199

MULLIKEN ATOMIC CHARGES
-----------------------
   0 C :   -0.237770
   1 C :   -0.017034
   2 C :   -0.131972
   3 C :   -0.031221
   4 C :   -0.137908
   5 C :   -0.015531
   6 C :   -0.072985
   7 C :   -0.211627
   8 C :   -0.208269
   9 H :    0.117096
  10 H :    0.098783
  11 H :    0.117032
  12 H :    0.029292
  13 H :    0.041760
  14 H :    0.030009
  15 H :    0.107379
  16 H :    0.099521
  17 H :    0.107505
  18 H :    0.100524
  19 H :    0.107767
  20 H :    0.107649
Sum of atomic charges:    0.0000000

LOEWDIN ATOMIC CHARGES
----------------------
   0 C :   -0.325107
   1 C :   -0.048945
   2 C :   -0.132108
   3 C :   -0.128122
   4 C :   -0.131873
   5 C :   -0.046747
   6 C :   -0.048371
   7 C :   -0.324360
   8 C :   -0.321284
   9 H :    0.129815
  10 H :    0.123963
  11 H :    0.129805
  12 H :    0.117998
  13 H :    0.120748
  14 H :    0.118050
  15 H :    0.130575
  16 H :    0.123881
  17 H :    0.130642
  18 H :    0.123827
  19 H :    0.128824
  20 H :    0.128787

  Mayer bond orders larger than 0.100000
B(  0-C ,  1-C ) :   1.1170 B(  0-C ,  9-H ) :   0.9269 B(  0-C , 10-H ) :   0.9373
B(  0-C , 11-H ) :   0.9269 B(  1-C ,  2-C ) :   1.3915 B(  1-C ,  6-C ) :   1.4168
B(  2-C ,  3-C ) :   1.3583 B(  2-C , 12-H ) :   0.9576 B(  3-C ,  4-C ) :   1.3533
B(  3-C , 13-H ) :   0.9633 B(  4-C ,  5-C ) :   1.4002 B(  4-C , 14-H ) :   0.9595
B(  5-C ,  6-C ) :   1.3978 B(  5-C ,  8-C ) :   1.1455 B(  6-C ,  7-C ) :   1.1762
B(  7-C , 15-H ) :   0.9203 B(  7-C , 16-H ) :   0.9198 B(  7-C , 17-H ) :   0.9204
B(  8-C , 18-H ) :   0.9362 B(  8-C , 19-H ) :   0.9222 B(  8-C , 20-H ) :   0.9222

Dispersion correction           -0.021796916
FINAL SINGLE POINT ENERGY      -349.375139976325

DIPOLE MOMENT
-------------

Method             : SCF
Type of density    : Electron Density
Multiplicity       :   1
Irrep              :   0
Energy             :  -349.4336558828497914 Eh
Relativity type    :
Basis              : AO
                                X                 Y                 Z
Electronic contribution:     -0.224184850      -5.478794516      -0.000100620
Nuclear contribution   :      0.247050787       5.776344886       0.000192385
                        -----------------------------------------
Total Dipole Moment    :      0.022865936       0.297550370       0.000091765
                        -----------------------------------------
Magnitude (a.u.)       :      0.298427683
Magnitude (Debye)      :      0.758542888

Rotational constants in cm-1:             0.074901             0.058487             0.033453
Rotational constants in MHz :          2245.482593          1753.395551          1002.907046

                             ****ORCA TERMINATED NORMALLY****
TOTAL RUN TIME: 0 days 0 hours 0 minutes 9 seconds 795 msec
