                         Program Version 6.0.0  -   RELEASE  -
|  1> ! r2scan-3c def2/J RI DEFGRID2 scfconv6 printgap
|  2> %output
|  3>     printlevel normal
|  4> end
|  5> * xyz 0 1
|  6> C 2.9679067469 -2.4400353615 1.8357734393
|  7> C 1.6449405766 -2.06612142 1.1985833641
|  8> O 1.5722126217 -0.6502399536 0.9635603231
|  9> P 2.2519448777 0.0583190918 -0.2988400485
| 10> S 2.8843181663 -1.1187650888 -1.7220118396
| 11> O 3.4312545414 0.93179979 0.2924265726
| 12> C 3.3206828516 1.7744241151 1.4671810167
| 13> C 3.0451894716 3.2135745337 1.0810178604
| 14> S 0.7483335028 1.4574086081 -0.8310261246
| 15> C -0.1368127024 0.3803733053 -1.9837154429
| 16> S -0.809273579 -1.116069464 -1.2101358958
| 17> P -2.2200487562 -0.1397358069 0.013962121
| 18> S -3.1084312648 1.4557218295 -0.7089930136
| 19> O -1.350847629 0.0702210894 1.3182990196
| 20> C -1.7365813016 0.9814273545 2.373577715
| 21> C -0.4930553591 1.6825278408 2.8808587255
| 22> O -3.2157443676 -1.2867158994 0.4893317105
| 23> C -4.4160952667 -1.6147132312 -0.2320660336
| 24> C -4.1175253478 -2.2459807198 -1.5764713723
| 25> H 3.1070421544 -1.9018844939 2.7696040636
| 26> H 2.9855734457 -3.5078828396 2.0288050123
| 27> H 3.7826745619 -2.1891067782 1.1572179362
| 28> H 0.7975096025 -2.2757849114 1.8535943128
| 29> H 1.5112400381 -2.5910794554 0.247239828
| 30> H 2.5366954311 1.3783439139 2.1156235706
| 31> H 4.2918961661 1.6774979882 1.9555023099
| 32> H 3.0455377489 3.8267894019 1.9767448755
| 33> H 3.8135616933 3.5702696164 0.4007965606
| 34> H 2.0788526823 3.3017547347 0.5881418895
| 35> H 0.546874214 0.0410085539 -2.7612281538
| 36> H -0.9503063965 0.975839627 -2.3977096437
| 37> H -2.4604826177 1.6995705112 1.9733258357
| 38> H -2.2116491079 0.3855652775 3.1559203259
| 39> H -0.052760685 2.2789559217 2.0855501394
| 40> H -0.7605613458 2.3304673851 3.7091166689
| 41> H 0.2325508081 0.9467353952 3.2165094645
| 42> H -4.9403340278 -2.3042165137 0.4308356054
| 43> H -5.0024501626 -0.6990311326 -0.3588242014
| 44> H -3.4479459879 -3.0940422028 -1.4564380077
| 45> H -5.0447332817 -2.5788576775 -2.0317628726
| 46> H -3.6440213144 -1.5169911957 -2.2331232285
| 47> *
| 48>
| 49>                          ****END OF INPUT****

CARTESIAN COORDINATES (ANGSTROEM)
---------------------------------
  C      2.967907   -2.440035    1.835773
  C      1.644941   -2.066121    1.198583
  O      1.572213   -0.650240    0.963560
  P      2.251945    0.058319   -0.298840
  S      2.884318   -1.118765   -1.722012
  O      3.431255    0.931800    0.292427
  C      3.320683    1.774424    1.467181
  C      3.045189    3.213575    1.081018
  S      0.748334    1.457409   -0.831026
  C     -0.136813    0.380373   -1.983715
  S     -0.809274   -1.116069   -1.210136
  P     -2.220049   -0.139736    0.013962
  S     -3.108431    1.455722   -0.708993
  O     -1.350848    0.070221    1.318299
  C     -1.736581    0.981427    2.373578
  C     -0.493055    1.682528    2.880859
  O     -3.215744   -1.286716    0.489332
  C     -4.416095   -1.614713   -0.232066
  C     -4.117525   -2.245981   -1.576471
  H      3.107042   -1.901884    2.769604
  H      2.985573   -3.507883    2.028805
  H      3.782675   -2.189107    1.157218
  H      0.797510   -2.275785    1.853594
  H      1.511240   -2.591079    0.247240
  H      2.536695    1.378344    2.115624
  H      4.291896    1.677498    1.955502
  H      3.045538    3.826789    1.976745
  H      3.813562    3.570270    0.400797
  H      2.078853    3.301755    0.588142
  H      0.546874    0.041009   -2.761228
  H     -0.950306    0.975840   -2.397710
  H     -2.460483    1.699571    1.973326
  H     -2.211649    0.385565    3.155920
  H     -0.052761    2.278956    2.085550
  H     -0.760561    2.330467    3.709117
  H      0.232551    0.946735    3.216509
  H     -4.940334   -2.304217    0.430836
  H     -5.002450   -0.699031   -0.358824
  H     -3.447946   -3.094042   -1.456438
  H     -5.044733   -2.578858   -2.031763
  H     -3.644021   -1.516991   -2.233123

 Total Charge           Charge          ....    0
 Multiplicity           Mult            ....    1
 Number of Electrons    NEL             ....  202
 Basis Dimension        Dim             ....  539

ORBITAL ENERGIES
----------------

  NO   OCC          E(Eh)            E(eV)
   0   2.0000     -88.576959     -2410.3016
   1   2.0000     -88.572868     -2410.1903
   2   2.0000     -88.522251     -2408.8129
   3   2.0000     -88.519413     -2408.7357
   4   2.0000     -76.914322     -2092.9451
   5   2.0000     -76.913650     -2092.9268
   6   2.0000     -18.993683      -516.8444
   7   2.0000     -18.993148      -516.8298
   8   2.0000     -18.988343      -516.6991
   9   2.0000     -18.985824      -516.6305
  10   2.0000     -10.106796      -275.0199
  11   2.0000     -10.105569      -274.9865
  12   2.0000     -10.099103      -274.8106
  13   2.0000     -10.098923      -274.8057
  14   2.0000     -10.093081      -274.6467
  15   2.0000     -10.036429      -273.1051
  16   2.0000     -10.033200      -273.0172
  17   2.0000     -10.029399      -272.9138
  18   2.0000     -10.027294      -272.8565
  19   2.0000      -7.871348      -214.1903
  20   2.0000      -7.867395      -214.0827
  21   2.0000      -7.817051      -212.7128
  22   2.0000      -7.814285      -212.6375
  23   2.0000      -6.592971      -179.4039
  24   2.0000      -6.591857      -179.3735
  25   2.0000      -5.818282      -158.3235
  26   2.0000      -5.815231      -158.2405
  27   2.0000      -5.814279      -158.2146
  28   2.0000      -5.811311      -158.1338
  29   2.0000      -5.808365      -158.0537
  30   2.0000      -5.804389      -157.9455
  31   2.0000      -5.764576      -156.8621
  32   2.0000      -5.762079      -156.7941
  33   2.0000      -5.757400      -156.6668
  34   2.0000      -5.757094      -156.6585
  35   2.0000      -5.754490      -156.5876
  36   2.0000      -5.754188      -156.5794
  37   2.0000      -4.738424      -128.9391
  38   2.0000      -4.737826      -128.9228
  39   2.0000      -4.737716      -128.9198
  40   2.0000      -4.736786      -128.8945
  41   2.0000      -4.736420      -128.8845
  42   2.0000      -4.735661      -128.8639
  43   2.0000      -1.049855       -28.5680
  44   2.0000      -1.046895       -28.4875
  45   2.0000      -1.010345       -27.4929
  46   2.0000      -1.007488       -27.4151
  47   2.0000      -0.803396       -21.8615
  48   2.0000      -0.760749       -20.7010
  49   2.0000      -0.752365       -20.4729
  50   2.0000      -0.734340       -19.9824
  51   2.0000      -0.732228       -19.9249
  52   2.0000      -0.711412       -19.3585
  53   2.0000      -0.686600       -18.6833
  54   2.0000      -0.670023       -18.2323
  55   2.0000      -0.632499       -17.2112
  56   2.0000      -0.619812       -16.8659
  57   2.0000      -0.612444       -16.6654
  58   2.0000      -0.606993       -16.5171
  59   2.0000      -0.589231       -16.0338
  60   2.0000      -0.530388       -14.4326
  61   2.0000      -0.523327       -14.2405
  62   2.0000      -0.497503       -13.5377
  63   2.0000      -0.493425       -13.4268
  64   2.0000      -0.474545       -12.9130
  65   2.0000      -0.464940       -12.6517
  66   2.0000      -0.461002       -12.5445
  67   2.0000      -0.452744       -12.3198
  68   2.0000      -0.446517       -12.1504
  69   2.0000      -0.435009       -11.8372
  70   2.0000      -0.424943       -11.5633
  71   2.0000      -0.414437       -11.2774
  72   2.0000      -0.407864       -11.0986
  73   2.0000      -0.405170       -11.0252
  74   2.0000      -0.393503       -10.7078
  75   2.0000      -0.390909       -10.6372
  76   2.0000      -0.384141       -10.4530
  77   2.0000      -0.374454       -10.1894
  78   2.0000      -0.373673       -10.1682
  79   2.0000      -0.372477       -10.1356
  80   2.0000      -0.367485        -9.9998
  81   2.0000      -0.362439        -9.8625
  82   2.0000      -0.359282        -9.7766
  83   2.0000      -0.354935        -9.6583
  84   2.0000      -0.350625        -9.5410
  85   2.0000      -0.334280        -9.0962
  86   2.0000      -0.323216        -8.7952
  87   2.0000      -0.318498        -8.6668
  88   2.0000      -0.311028        -8.4635
  89   2.0000      -0.303935        -8.2705
  90   2.0000      -0.296131        -8.0581
  91   2.0000      -0.292685        -7.9644
  92   2.0000      -0.286314        -7.7910
  93   2.0000      -0.279896        -7.6163
  94   2.0000      -0.273851        -7.4519
  95   2.0000      -0.244206        -6.6452
  96   2.0000      -0.228582        -6.2200
  97   2.0000      -0.227857        -6.2003
  98   2.0000      -0.221072        -6.0157
  99   2.0000      -0.214473        -5.8361
 100   2.0000      -0.212610        -5.7854
 101   0.0000      -0.047741        -1.2991
 102   0.0000      -0.025054        -0.6818
 103   0.0000      -0.002605        -0.0709
 104   0.0000       0.004140         0.1127
 105   0.0000       0.006839         0.1861

MULLIKEN ATOMIC CHARGES
-----------------------
   0 C :   -0.448289
   1 C :   -0.161239
   2 O :   -0.259820
   3 P :    0.682621
   4 S :   -0.451948
   5 O :   -0.283729
   6 C :   -0.176126
   7 C :   -0.417801
   8 S :   -0.154400
   9 C :   -0.245875
  10 S :   -0.121859
  11 P :    0.704270
  12 S :   -0.492338
  13 O :   -0.256535
  14 C :   -0.124654
  15 C :   -0.480437
  16 O :   -0.308744
  17 C :   -0.153094
  18 C :   -0.449225
  19 H :    0.145361
  20 H :    0.146968
  21 H :    0.173409
  22 H :    0.159878
  23 H :    0.176825
  24 H :    0.166145
  25 H :    0.154426
  26 H :    0.148860
  27 H :    0.162512
  28 H :    0.153461
  29 H :    0.213842
  30 H :    0.212741
  31 H :    0.168182
  32 H :    0.148896
  33 H :    0.166718
  34 H :    0.145304
  35 H :    0.155865
  36 H :    0.147287
  37 H :    0.172858
  38 H :    0.155452
  39 H :    0.148338
  40 H :    0.175895
Sum of atomic charges:   -0.0000000

LOEWDIN ATOMIC CHARGES
----------------------
   0 C :   -0.399111
   1 C :    0.007382
   2 O :   -0.692497
   3 P :    0.383699
   4 S :   -0.098190
   5 O :   -0.652035
   6 C :    0.023345
   7 C :   -0.398386
   8 S :    0.150460
   9 C :   -0.419848
  10 S :    0.186447
  11 P :    0.377862
  12 S :   -0.137671
  13 O :   -0.668329
  14 C :    0.026276
  15 C :   -0.395684
  16 O :   -0.659810
  17 C :    0.019200
  18 C :   -0.406598
  19 H :    0.154691
  20 H :    0.159858
  21 H :    0.166372
  22 H :    0.180454
  23 H :    0.182498
  24 H :    0.178595
  25 H :    0.181441
  26 H :    0.160213
  27 H :    0.164354
  28 H :    0.162609
  29 H :    0.191386
  30 H :    0.191526
  31 H :    0.182310
  32 H :    0.172055
  33 H :    0.163320
  34 H :    0.158025
  35 H :    0.159674
  36 H :    0.179166
  37 H :    0.179837
  38 H :    0.160195
  39 H :    0.159521
  40 H :    0.165388

  Mayer bond orders larger than 0.100000
B(  0-C ,  1-C ) :   0.9253 B(  0-C , 19-H ) :   0.9756 B(  0-C , 20-H ) :   0.9641
B(  0-C , 21-H ) :   0.9627 B(  1-C ,  2-O ) :   0.7711 B(  1-C , 22-H ) :   0.9659
B(  1-C , 23-H ) :   0.9559 B(  2-O ,  3-P ) :   1.0340 B(  3-P ,  4-S ) :   1.8320
B(  3-P ,  5-O ) :   1.1340 B(  3-P ,  8-S ) :   1.0326 B(  5-O ,  6-C ) :   0.7557
B(  6-C ,  7-C ) :   0.9584 B(  6-C , 24-H ) :   0.9676 B(  6-C , 25-H ) :   0.9609
B(  7-C , 26-H ) :   0.9664 B(  7-C , 27-H ) :   0.9699 B(  7-C , 28-H ) :   0.9516
B(  8-S ,  9-C ) :   0.9079 B(  9-C , 10-S ) :   0.8907 B(  9-C , 29-H ) :   0.9099
B(  9-C , 30-H ) :   0.9109 B( 10-S , 11-P ) :   1.0986 B( 11-P , 12-S ) :   1.7340
B( 11-P , 13-O ) :   1.1650 B( 11-P , 16-O ) :   1.0591 B( 13-O , 14-C ) :   0.7690
B( 14-C , 15-C ) :   0.9561 B( 14-C , 31-H ) :   0.9561 B( 14-C , 32-H ) :   0.9498
B( 15-C , 33-H ) :   0.9691 B( 15-C , 34-H ) :   0.9628 B( 15-C , 35-H ) :   0.9688
B( 16-O , 17-C ) :   0.8170 B( 17-C , 18-C ) :   0.9233 B( 17-C , 36-H ) :   0.9585
B( 17-C , 37-H ) :   0.9675 B( 18-C , 38-H ) :   0.9683 B( 18-C , 39-H ) :   0.9589
B( 18-C , 40-H ) :   0.9622

Dispersion correction           -0.022253288
FINAL SINGLE POINT ENERGY     -2932.461435455174

DIPOLE MOMENT
-------------

Method             : SCF
Type of density    : Electron Density
Multiplicity       :   1
Irrep              :   0
Energy             : -2932.4857900242077449 Eh
Relativity type    :
Basis              : AO
                                X                 Y                 Z
Electronic contribution:     -0.636007965       0.025635042     -16.003605411
Nuclear contribution   :      0.187707450      -0.191599385      17.715599961
                        -----------------------------------------
Total Dipole Moment    :     -0.448300516      -0.165964343       1.711994551
                        -----------------------------------------
Magnitude (a.u.)       :      1.777482168
Magnitude (Debye)      :      4.518000619

Rotational constants in cm-1:             0.011767             0.005588             0.005075
Rotational constants in MHz :           352.775493           167.525929           152.138978

                             ****ORCA TERMINATED NORMALLY****
TOTAL RUN TIME: 0 days 0 hours 1 minutes 27 seconds 560 msec
