                         Program Version 6.0.0  -   RELEASE  -
|  1> ! r2scan-3c def2/J RI DEFGRID2 scfconv6 printgap
|  2> %output
|  3>     printlevel normal
|  4> end
|  5> %cpcm
|  6>     smd true
|  7>     smdsolvent "water"
|  8> end
|  9> * xyz 0 1
| 10> C 2.9679067469 -2.4400353615 1.8357734393
| 11> C 1.6449405766 -2.06612142 1.1985833641
| 12> O 1.5722126217 -0.6502399536 0.9635603231
| 13> P 2.2519448777 0.0583190918 -0.2988400485
| 14> S 2.8843181663 -1.1187650888 -1.7220118396
| 15> O 3.4312545414 0.93179979 0.2924265726
| 16> C 3.3206828516 1.7744241151 1.4671810167
| 17> C 3.0451894716 3.2135745337 1.0810178604
| 18> S 0.7483335028 1.4574086081 -0.8310261246
| 19> C -0.1368127024 0.3803733053 -1.9837154429
| 20> S -0.809273579 -1.116069464 -1.2101358958
| 21> P -2.2200487562 -0.1397358069 0.013962121
| 22> S -3.1084312648 1.4557218295 -0.7089930136
| 23> O -1.350847629 0.0702210894 1.3182990196
| 24> C -1.7365813016 0.9814273545 2.373577715
| 25> C -0.4930553591 1.6825278408 2.8808587255
| 26> O -3.2157443676 -1.2867158994 0.4893317105
| 27> C -4.4160952667 -1.6147132312 -0.2320660336
| 28> C -4.1175253478 -2.2459807198 -1.5764713723
| 29> H 3.1070421544 -1.9018844939 2.7696040636
| 30> H 2.9855734457 -3.5078828396 2.0288050123
| 31> H 3.7826745619 -2.1891067782 1.1572179362
| 32> H 0.7975096025 -2.2757849114 1.8535943128
| 33> H 1.5112400381 -2.5910794554 0.247239828
| 34> H 2.5366954311 1.3783439139 2.1156235706
| 35> H 4.2918961661 1.6774979882 1.9555023099
| 36> H 3.0455377489 3.8267894019 1.9767448755
| 37> H 3.8135616933 3.5702696164 0.4007965606
| 38> H 2.0788526823 3.3017547347 0.5881418895
| 39> H 0.546874214 0.0410085539 -2.7612281538
| 40> H -0.9503063965 0.975839627 -2.3977096437
| 41> H -2.4604826177 1.6995705112 1.9733258357
| 42> H -2.2116491079 0.3855652775 3.1559203259
| 43> H -0.052760685 2.2789559217 2.0855501394
| 44> H -0.7605613458 2.3304673851 3.7091166689
| 45> H 0.2325508081 0.9467353952 3.2165094645
| 46> H -4.9403340278 -2.3042165137 0.4308356054
| 47> H -5.0024501626 -0.6990311326 -0.3588242014
| 48> H -3.4479459879 -3.0940422028 -1.4564380077
| 49> H -5.0447332817 -2.5788576775 -2.0317628726
| 50> H -3.6440213144 -1.5169911957 -2.2331232285
| 51> *
| 52>
| 53>                          ****END OF INPUT****

CARTESIAN COORDINATES (ANGSTROEM)
---------------------------------
  C      2.967907   -2.440035    1.835773
  C      1.644941   -2.066121    1.198583
  O      1.572213   -0.650240    0.963560
  P      2.251945    0.058319   -0.298840
  S      2.884318   -1.118765   -1.722012
  O      3.431255    0.931800    0.292427
  C      3.320683    1.774424    1.467181
  C      3.045189    3.213575    1.081018
  S      0.748334    1.457409   -0.831026
  C     -0.136813    0.380373   -1.983715
  S     -0.809274   -1.116069   -1.210136
  P     -2.220049   -0.139736    0.013962
  S     -3.108431    1.455722   -0.708993
  O     -1.350848    0.070221    1.318299
  C     -1.736581    0.981427    2.373578
  C     -0.493055    1.682528    2.880859
  O     -3.215744   -1.286716    0.489332
  C     -4.416095   -1.614713   -0.232066
  C     -4.117525   -2.245981   -1.576471
  H      3.107042   -1.901884    2.769604
  H      2.985573   -3.507883    2.028805
  H      3.782675   -2.189107    1.157218
  H      0.797510   -2.275785    1.853594
  H      1.511240   -2.591079    0.247240
  H      2.536695    1.378344    2.115624
  H      4.291896    1.677498    1.955502
  H      3.045538    3.826789    1.976745
  H      3.813562    3.570270    0.400797
  H      2.078853    3.301755    0.588142
  H      0.546874    0.041009   -2.761228
  H     -0.950306    0.975840   -2.397710
  H     -2.460483    1.699571    1.973326
  H     -2.211649    0.385565    3.155920
  H     -0.052761    2.278956    2.085550
  H     -0.760561    2.330467    3.709117
  H      0.232551    0.946735    3.216509
  H     -4.940334   -2.304217    0.430836
  H     -5.002450   -0.699031   -0.358824
  H     -3.447946   -3.094042   -1.456438
  H     -5.044733   -2.578858   -2.031763
  H     -3.644021   -1.516991   -2.233123

 Total Charge           Charge          ....    0
 Multiplicity           Mult            ....    1
 Number of Electrons    NEL             ....  202
 Basis Dimension        Dim             ....  539

ORBITAL ENERGIES
----------------

  NO   OCC          E(Eh)            E(eV)
   0   2.0000     -88.580053     -2410.3858
   1   2.0000     -88.577450     -2410.3150
   2   2.0000     -88.530108     -2409.0267
   3   2.0000     -88.528326     -2408.9782
   4   2.0000     -76.920464     -2093.1122
   5   2.0000     -76.918469     -2093.0579
   6   2.0000     -18.995727      -516.9000
   7   2.0000     -18.995195      -516.8855
   8   2.0000     -18.990436      -516.7560
   9   2.0000     -18.989231      -516.7232
  10   2.0000     -10.105292      -274.9790
  11   2.0000     -10.092847      -274.6403
  12   2.0000     -10.089162      -274.5400
  13   2.0000     -10.088318      -274.5171
  14   2.0000     -10.087043      -274.4824
  15   2.0000     -10.021135      -272.6889
  16   2.0000     -10.018539      -272.6183
  17   2.0000     -10.017861      -272.5999
  18   2.0000     -10.017267      -272.5837
  19   2.0000      -7.874486      -214.2756
  20   2.0000      -7.871952      -214.2067
  21   2.0000      -7.825337      -212.9382
  22   2.0000      -7.823403      -212.8856
  23   2.0000      -6.598694      -179.5596
  24   2.0000      -6.597141      -179.5173
  25   2.0000      -5.821414      -158.4087
  26   2.0000      -5.818805      -158.3377
  27   2.0000      -5.818362      -158.3257
  28   2.0000      -5.815840      -158.2571
  29   2.0000      -5.811513      -158.1393
  30   2.0000      -5.809014      -158.0713
  31   2.0000      -5.773025      -157.0920
  32   2.0000      -5.770875      -157.0335
  33   2.0000      -5.765500      -156.8872
  34   2.0000      -5.765316      -156.8822
  35   2.0000      -5.763729      -156.8390
  36   2.0000      -5.763469      -156.8320
  37   2.0000      -4.744497      -129.1043
  38   2.0000      -4.743235      -129.0700
  39   2.0000      -4.742618      -129.0532
  40   2.0000      -4.742547      -129.0513
  41   2.0000      -4.741999      -129.0363
  42   2.0000      -4.741027      -129.0099
  43   2.0000      -1.051343       -28.6085
  44   2.0000      -1.049309       -28.5532
  45   2.0000      -1.011248       -27.5175
  46   2.0000      -1.009531       -27.4707
  47   2.0000      -0.805696       -21.9241
  48   2.0000      -0.757066       -20.6008
  49   2.0000      -0.744774       -20.2663
  50   2.0000      -0.726146       -19.7594
  51   2.0000      -0.722328       -19.6556
  52   2.0000      -0.709641       -19.3103
  53   2.0000      -0.689710       -18.7680
  54   2.0000      -0.675937       -18.3932
  55   2.0000      -0.630768       -17.1641
  56   2.0000      -0.616175       -16.7670
  57   2.0000      -0.604521       -16.4498
  58   2.0000      -0.599056       -16.3011
  59   2.0000      -0.586274       -15.9533
  60   2.0000      -0.525697       -14.3049
  61   2.0000      -0.519030       -14.1235
  62   2.0000      -0.493945       -13.4409
  63   2.0000      -0.489228       -13.3126
  64   2.0000      -0.474903       -12.9228
  65   2.0000      -0.459647       -12.5076
  66   2.0000      -0.455668       -12.3994
  67   2.0000      -0.447241       -12.1700
  68   2.0000      -0.439996       -11.9729
  69   2.0000      -0.431671       -11.7464
  70   2.0000      -0.421839       -11.4788
  71   2.0000      -0.410669       -11.1749
  72   2.0000      -0.404486       -11.0066
  73   2.0000      -0.401215       -10.9176
  74   2.0000      -0.392543       -10.6816
  75   2.0000      -0.387297       -10.5389
  76   2.0000      -0.381500       -10.3811
  77   2.0000      -0.367804       -10.0085
  78   2.0000      -0.364949        -9.9308
  79   2.0000      -0.362101        -9.8533
  80   2.0000      -0.357430        -9.7262
  81   2.0000      -0.355461        -9.6726
  82   2.0000      -0.350811        -9.5461
  83   2.0000      -0.347655        -9.4602
  84   2.0000      -0.344663        -9.3788
  85   2.0000      -0.330932        -9.0051
  86   2.0000      -0.319040        -8.6815
  87   2.0000      -0.311972        -8.4892
  88   2.0000      -0.304861        -8.2957
  89   2.0000      -0.302517        -8.2319
  90   2.0000      -0.295088        -8.0298
  91   2.0000      -0.289948        -7.8899
  92   2.0000      -0.285237        -7.7617
  93   2.0000      -0.279862        -7.6154
  94   2.0000      -0.274608        -7.4725
  95   2.0000      -0.247868        -6.7448
  96   2.0000      -0.237377        -6.4594
  97   2.0000      -0.235752        -6.4151
  98   2.0000      -0.228377        -6.2145
  99   2.0000      -0.223155        -6.0724
 100   2.0000      -0.220713        -6.0059
 101   0.0000      -0.052510        -1.4289
 102   0.0000      -0.031146        -0.8475
 103   0.0000      -0.005938        -0.1616
 104   0.0000      -0.000464        -0.0126
 105   0.0000       0.007068         0.1923

MULLIKEN ATOMIC CHARGES
-----------------------
   0 C :   -0.485413
   1 C :   -0.144584
   2 O :   -0.280185
   3 P :    0.691867
   4 S :   -0.505427
   5 O :   -0.318888
   6 C :   -0.163401
   7 C :   -0.457612
   8 S :   -0.165061
   9 C :   -0.255863
  10 S :   -0.129711
  11 P :    0.737582
  12 S :   -0.536724
  13 O :   -0.286995
  14 C :   -0.121330
  15 C :   -0.515344
  16 O :   -0.334861
  17 C :   -0.152149
  18 C :   -0.485576
  19 H :    0.166556
  20 H :    0.169885
  21 H :    0.166414
  22 H :    0.180073
  23 H :    0.175509
  24 H :    0.184608
  25 H :    0.178783
  26 H :    0.174925
  27 H :    0.172200
  28 H :    0.153908
  29 H :    0.234216
  30 H :    0.233439
  31 H :    0.168877
  32 H :    0.172510
  33 H :    0.171805
  34 H :    0.168909
  35 H :    0.170949
  36 H :    0.174489
  37 H :    0.177585
  38 H :    0.169414
  39 H :    0.172784
  40 H :    0.171839
Sum of atomic charges:   -0.0000000

LOEWDIN ATOMIC CHARGES
----------------------
   0 C :   -0.401336
   1 C :    0.012021
   2 O :   -0.700557
   3 P :    0.384589
   4 S :   -0.137996
   5 O :   -0.672098
   6 C :    0.031996
   7 C :   -0.400672
   8 S :    0.147068
   9 C :   -0.414930
  10 S :    0.182302
  11 P :    0.382749
  12 S :   -0.165430
  13 O :   -0.684466
  14 C :    0.030316
  15 C :   -0.396816
  16 O :   -0.670741
  17 C :    0.024579
  18 C :   -0.409851
  19 H :    0.162286
  20 H :    0.167893
  21 H :    0.162179
  22 H :    0.188990
  23 H :    0.181771
  24 H :    0.186885
  25 H :    0.192099
  26 H :    0.171127
  27 H :    0.165322
  28 H :    0.160705
  29 H :    0.197051
  30 H :    0.197979
  31 H :    0.182742
  32 H :    0.182101
  33 H :    0.163506
  34 H :    0.167438
  35 H :    0.163823
  36 H :    0.190678
  37 H :    0.181296
  38 H :    0.163600
  39 H :    0.168414
  40 H :    0.161391

  Mayer bond orders larger than 0.100000
B(  0-C ,  1-C ) :   0.9251 B(  0-C , 19-H ) :   0.9705 B(  0-C , 20-H ) :   0.9594
B(  0-C , 21-H ) :   0.9644 B(  1-C ,  2-O ) :   0.7570 B(  1-C , 22-H ) :   0.9544
B(  1-C , 23-H ) :   0.9526 B(  2-O ,  3-P ) :   1.0417 B(  3-P ,  4-S ) :   1.8096
B(  3-P ,  5-O ) :   1.1412 B(  3-P ,  8-S ) :   1.0489 B(  5-O ,  6-C ) :   0.7469
B(  6-C ,  7-C ) :   0.9458 B(  6-C , 24-H ) :   0.9566 B(  6-C , 25-H ) :   0.9511
B(  7-C , 26-H ) :   0.9593 B(  7-C , 27-H ) :   0.9700 B(  7-C , 28-H ) :   0.9515
B(  8-S ,  9-C ) :   0.8922 B(  9-C , 10-S ) :   0.8827 B(  9-C , 29-H ) :   0.9047
B(  9-C , 30-H ) :   0.9055 B( 10-S , 11-P ) :   1.1075 B( 11-P , 12-S ) :   1.6964
B( 11-P , 13-O ) :   1.1720 B( 11-P , 16-O ) :   1.0678 B( 13-O , 14-C ) :   0.7593
B( 14-C , 15-C ) :   0.9469 B( 14-C , 31-H ) :   0.9535 B( 14-C , 32-H ) :   0.9393
B( 15-C , 33-H ) :   0.9663 B( 15-C , 34-H ) :   0.9574 B( 15-C , 35-H ) :   0.9659
B( 16-O , 17-C ) :   0.8052 B( 17-C , 18-C ) :   0.9110 B( 17-C , 36-H ) :   0.9488
B( 17-C , 37-H ) :   0.9658 B( 18-C , 38-H ) :   0.9656 B( 18-C , 39-H ) :   0.9536
B( 18-C , 40-H ) :   0.9632

Dispersion correction           -0.022253288
FINAL SINGLE POINT ENERGY     -2932.471548490984

DIPOLE MOMENT
-------------

Method             : SCF
Type of density    : Electron Density
Multiplicity       :   1
Irrep              :   0
Energy             : -2932.4959030600175538 Eh
Relativity type    :
Basis              : AO
                                X                 Y                 Z
Electronic contribution:     -0.922732195      -0.013978479     -15.350556683
Nuclear contribution   :      0.187707450      -0.191599385      17.715599961
                        -----------------------------------------
Total Dipole Moment    :     -0.735024745      -0.205577864       2.365043279
                        -----------------------------------------
Magnitude (a.u.)       :      2.485146544
Magnitude (Debye)      :      6.316740514

Rotational constants in cm-1:             0.011767             0.005588             0.005075
Rotational constants in MHz :           352.775493           167.525929           152.138978

                             ****ORCA TERMINATED NORMALLY****
TOTAL RUN TIME: 0 days 0 hours 1 minutes 54 seconds 51 msec
