                         Program Version 6.0.0  -   RELEASE  -
|  1> ! pbe def2-sv(p) def2/J RI DEFGRID1 loosescf d4 GCP(DFT/SV(P)) printgap
|  2> %output
|  3>     printlevel normal
|  4> end
|  5> * xyz 0 1
|  6> C 0.7541929444 -1.9684642051 2.8504567424
|  7> C 1.8482027188 -1.0418745165 2.3614218021
|  8> O 2.1598322687 -1.4030078123 0.9899285096
|  9> P 2.6918430431 -0.365435248 -0.0689495766
| 10> S 3.1283822482 -1.2268493924 -1.7694588283
| 11> O 3.8963223904 0.3171985923 0.7123119424
| 12> C 4.9339331513 1.0663864992 0.0536052652
| 13> C 4.4079461354 2.3238458812 -0.6071765169
| 14> S 1.2059979602 1.1651908843 -0.1598368746
| 15> C 0.1243260952 0.3058836123 -1.3248946669
| 16> S -0.9399531335 -0.9176050793 -0.5257649001
| 17> P -2.7034033845 0.2901805654 -0.3004399636
| 18> S -2.8093513771 1.8659456615 -1.4540818559
| 19> O -2.8510362918 0.4958034002 1.2731647267
| 20> C -1.8552907061 1.0707662231 2.1369067631
| 21> C -1.6110964577 2.5394144988 1.8568413292
| 22> O -3.8995946782 -0.6860477272 -0.5887490611
| 23> C -4.0778045058 -1.9423292731 0.1179853935
| 24> C -5.0231678108 -2.7985090406 -0.697808571
| 25> H 0.4992354815 -1.7122718041 3.8736252809
| 26> H -0.1274791336 -1.8760395361 2.2208111055
| 27> H 1.0957805016 -2.998479597 2.8098700646
| 28> H 2.7639332936 -1.1559208838 2.9438511672
| 29> H 1.536726295 0.0070330095 2.3856308935
| 30> H 5.6349022504 1.2963810884 0.8572778934
| 31> H 5.412898028 0.4156182686 -0.6841799305
| 32> H 3.8327260416 2.914012182 0.1018954413
| 33> H 5.2435783238 2.9123496742 -0.9721941543
| 34> H 3.7684818614 2.0639274367 -1.449674015
| 35> H 0.7432638923 -0.2223077725 -2.0517392131
| 36> H -0.5041618782 1.0582386501 -1.8076958888
| 37> H -2.2671664639 0.9192561578 3.1361566273
| 38> H -0.929228976 0.4990793039 2.0281583311
| 39> H -1.1457940983 2.6709366543 0.8811987554
| 40> H -2.5500417386 3.0868227208 1.8685008653
| 41> H -0.9491732492 2.9434533288 2.6158382581
| 42> H -3.1002335988 -2.420543826 0.2285119013
| 43> H -4.4870039813 -1.7150586908 1.1038524119
| 44> H -5.1938220038 -3.7359525046 -0.17846564
| 45> H -5.9694866054 -2.2824830835 -0.831998317
| 46> H -4.595430797 -3.001970971 -1.6755676747
| 47> *
| 48>
| 49>                          ****END OF INPUT****

CARTESIAN COORDINATES (ANGSTROEM)
---------------------------------
  C      0.754193   -1.968464    2.850457
  C      1.848203   -1.041875    2.361422
  O      2.159832   -1.403008    0.989929
  P      2.691843   -0.365435   -0.068950
  S      3.128382   -1.226849   -1.769459
  O      3.896322    0.317199    0.712312
  C      4.933933    1.066386    0.053605
  C      4.407946    2.323846   -0.607177
  S      1.205998    1.165191   -0.159837
  C      0.124326    0.305884   -1.324895
  S     -0.939953   -0.917605   -0.525765
  P     -2.703403    0.290181   -0.300440
  S     -2.809351    1.865946   -1.454082
  O     -2.851036    0.495803    1.273165
  C     -1.855291    1.070766    2.136907
  C     -1.611096    2.539414    1.856841
  O     -3.899595   -0.686048   -0.588749
  C     -4.077805   -1.942329    0.117985
  C     -5.023168   -2.798509   -0.697809
  H      0.499235   -1.712272    3.873625
  H     -0.127479   -1.876040    2.220811
  H      1.095781   -2.998480    2.809870
  H      2.763933   -1.155921    2.943851
  H      1.536726    0.007033    2.385631
  H      5.634902    1.296381    0.857278
  H      5.412898    0.415618   -0.684180
  H      3.832726    2.914012    0.101895
  H      5.243578    2.912350   -0.972194
  H      3.768482    2.063927   -1.449674
  H      0.743264   -0.222308   -2.051739
  H     -0.504162    1.058239   -1.807696
  H     -2.267166    0.919256    3.136157
  H     -0.929229    0.499079    2.028158
  H     -1.145794    2.670937    0.881199
  H     -2.550042    3.086823    1.868501
  H     -0.949173    2.943453    2.615838
  H     -3.100234   -2.420544    0.228512
  H     -4.487004   -1.715059    1.103852
  H     -5.193822   -3.735953   -0.178466
  H     -5.969487   -2.282483   -0.831998
  H     -4.595431   -3.001971   -1.675568

 Total Charge           Charge          ....    0
 Multiplicity           Mult            ....    1
 Number of Electrons    NEL             ....  202
 Basis Dimension        Dim             ....  334

ORBITAL ENERGIES
----------------

  NO   OCC          E(Eh)            E(eV)
   0   2.0000     -88.046889     -2395.8776
   1   2.0000     -88.044498     -2395.8126
   2   2.0000     -87.990148     -2394.3337
   3   2.0000     -87.988859     -2394.2986
   4   2.0000     -76.429963     -2079.7650
   5   2.0000     -76.428452     -2079.7239
   6   2.0000     -18.799381      -511.5572
   7   2.0000     -18.795325      -511.4468
   8   2.0000     -18.795216      -511.4438
   9   2.0000     -18.794494      -511.4242
  10   2.0000      -9.961966      -271.0789
  11   2.0000      -9.960837      -271.0482
  12   2.0000      -9.958507      -270.9847
  13   2.0000      -9.958453      -270.9833
  14   2.0000      -9.950651      -270.7710
  15   2.0000      -9.892053      -269.1764
  16   2.0000      -9.891940      -269.1734
  17   2.0000      -9.887912      -269.0638
  18   2.0000      -9.883524      -268.9444
  19   2.0000      -7.691412      -209.2940
  20   2.0000      -7.689055      -209.2298
  21   2.0000      -7.635369      -207.7690
  22   2.0000      -7.634056      -207.7332
  23   2.0000      -6.427682      -174.9061
  24   2.0000      -6.425994      -174.8602
  25   2.0000      -5.719021      -155.6225
  26   2.0000      -5.716780      -155.5615
  27   2.0000      -5.715997      -155.5402
  28   2.0000      -5.713562      -155.4739
  29   2.0000      -5.708666      -155.3407
  30   2.0000      -5.706281      -155.2758
  31   2.0000      -5.664370      -154.1353
  32   2.0000      -5.663093      -154.1006
  33   2.0000      -5.655906      -153.9050
  34   2.0000      -5.655501      -153.8940
  35   2.0000      -5.654760      -153.8738
  36   2.0000      -5.653964      -153.8522
  37   2.0000      -4.650605      -126.5494
  38   2.0000      -4.649328      -126.5146
  39   2.0000      -4.648700      -126.4976
  40   2.0000      -4.647907      -126.4760
  41   2.0000      -4.647887      -126.4754
  42   2.0000      -4.646213      -126.4299
  43   2.0000      -0.993413       -27.0321
  44   2.0000      -0.991610       -26.9831
  45   2.0000      -0.949895       -25.8479
  46   2.0000      -0.947095       -25.7718
  47   2.0000      -0.764576       -20.8052
  48   2.0000      -0.726753       -19.7760
  49   2.0000      -0.717869       -19.5342
  50   2.0000      -0.694318       -18.8934
  51   2.0000      -0.692683       -18.8488
  52   2.0000      -0.680137       -18.5075
  53   2.0000      -0.653172       -17.7737
  54   2.0000      -0.641494       -17.4559
  55   2.0000      -0.598853       -16.2956
  56   2.0000      -0.589526       -16.0418
  57   2.0000      -0.577674       -15.7193
  58   2.0000      -0.576765       -15.6946
  59   2.0000      -0.564819       -15.3695
  60   2.0000      -0.513620       -13.9763
  61   2.0000      -0.507681       -13.8147
  62   2.0000      -0.480798       -13.0832
  63   2.0000      -0.479064       -13.0360
  64   2.0000      -0.465453       -12.6656
  65   2.0000      -0.450177       -12.2499
  66   2.0000      -0.443205       -12.0602
  67   2.0000      -0.439872       -11.9695
  68   2.0000      -0.434567       -11.8252
  69   2.0000      -0.426296       -11.6001
  70   2.0000      -0.413352       -11.2479
  71   2.0000      -0.404021       -10.9940
  72   2.0000      -0.395960       -10.7746
  73   2.0000      -0.391442       -10.6517
  74   2.0000      -0.380885       -10.3644
  75   2.0000      -0.369168       -10.0456
  76   2.0000      -0.368439       -10.0257
  77   2.0000      -0.361953        -9.8492
  78   2.0000      -0.360797        -9.8178
  79   2.0000      -0.353277        -9.6132
  80   2.0000      -0.350713        -9.5434
  81   2.0000      -0.346869        -9.4388
  82   2.0000      -0.343747        -9.3538
  83   2.0000      -0.340494        -9.2653
  84   2.0000      -0.339536        -9.2392
  85   2.0000      -0.323711        -8.8086
  86   2.0000      -0.319295        -8.6885
  87   2.0000      -0.307130        -8.3574
  88   2.0000      -0.300522        -8.1776
  89   2.0000      -0.298848        -8.1321
  90   2.0000      -0.298266        -8.1162
  91   2.0000      -0.279206        -7.5976
  92   2.0000      -0.274728        -7.4757
  93   2.0000      -0.268086        -7.2950
  94   2.0000      -0.259959        -7.0738
  95   2.0000      -0.240497        -6.5443
  96   2.0000      -0.222105        -6.0438
  97   2.0000      -0.213921        -5.8211
  98   2.0000      -0.207269        -5.6401
  99   2.0000      -0.204850        -5.5742
 100   2.0000      -0.200169        -5.4469
 101   0.0000      -0.047270        -1.2863
 102   0.0000      -0.033466        -0.9107
 103   0.0000      -0.013219        -0.3597
 104   0.0000      -0.000060        -0.0016
 105   0.0000       0.010548         0.2870

MULLIKEN ATOMIC CHARGES
-----------------------
   0 C :   -0.292411
   1 C :   -0.017984
   2 O :   -0.355323
   3 P :    0.598831
   4 S :   -0.303231
   5 O :   -0.385810
   6 C :    0.000791
   7 C :   -0.321783
   8 S :   -0.106876
   9 C :   -0.356056
  10 S :   -0.117134
  11 P :    0.601473
  12 S :   -0.295363
  13 O :   -0.380195
  14 C :   -0.038990
  15 C :   -0.299683
  16 O :   -0.357134
  17 C :   -0.022810
  18 C :   -0.278220
  19 H :    0.106419
  20 H :    0.134531
  21 H :    0.121844
  22 H :    0.110247
  23 H :    0.108067
  24 H :    0.105975
  25 H :    0.114571
  26 H :    0.117875
  27 H :    0.116444
  28 H :    0.132474
  29 H :    0.195444
  30 H :    0.195230
  31 H :    0.103847
  32 H :    0.125625
  33 H :    0.127002
  34 H :    0.122016
  35 H :    0.105872
  36 H :    0.111280
  37 H :    0.110983
  38 H :    0.112026
  39 H :    0.125137
  40 H :    0.124999
Sum of atomic charges:   -0.0000000

LOEWDIN ATOMIC CHARGES
----------------------
   0 C :   -0.356474
   1 C :   -0.114347
   2 O :   -0.237222
   3 P :    0.570709
   4 S :   -0.303599
   5 O :   -0.249247
   6 C :   -0.114758
   7 C :   -0.371277
   8 S :    0.081656
   9 C :   -0.493010
  10 S :    0.067336
  11 P :    0.567040
  12 S :   -0.289292
  13 O :   -0.248002
  14 C :   -0.120780
  15 C :   -0.366695
  16 O :   -0.235524
  17 C :   -0.113614
  18 C :   -0.349259
  19 H :    0.128400
  20 H :    0.121408
  21 H :    0.130884
  22 H :    0.117744
  23 H :    0.099892
  24 H :    0.119284
  25 H :    0.114642
  26 H :    0.123326
  27 H :    0.132876
  28 H :    0.123549
  29 H :    0.128139
  30 H :    0.125939
  31 H :    0.118706
  32 H :    0.102379
  33 H :    0.114903
  34 H :    0.129530
  35 H :    0.128291
  36 H :    0.105502
  37 H :    0.116401
  38 H :    0.131025
  39 H :    0.131756
  40 H :    0.131782

  Mayer bond orders larger than 0.100000
B(  0-C ,  1-C ) :   1.1658 B(  0-C , 19-H ) :   0.9406 B(  0-C , 20-H ) :   0.9348
B(  0-C , 21-H ) :   0.9466 B(  1-C ,  2-O ) :   0.8888 B(  1-C , 22-H ) :   0.9304
B(  1-C , 23-H ) :   0.9056 B(  2-O ,  3-P ) :   1.1419 B(  3-P ,  4-S ) :   1.6415
B(  3-P ,  5-O ) :   1.0894 B(  3-P ,  8-S ) :   0.9449 B(  4-S ,  8-S ) :   0.1079
B(  5-O ,  6-C ) :   0.9048 B(  6-C ,  7-C ) :   1.1661 B(  6-C , 24-H ) :   0.9343
B(  6-C , 25-H ) :   0.9201 B(  7-C , 26-H ) :   0.9435 B(  7-C , 27-H ) :   0.9367
B(  7-C , 28-H ) :   0.9345 B(  8-S ,  9-C ) :   1.0027 B(  9-C , 10-S ) :   1.0077
B(  9-C , 29-H ) :   0.8606 B(  9-C , 30-H ) :   0.8491 B( 10-S , 11-P ) :   0.9376
B( 10-S , 12-S ) :   0.1156 B( 11-P , 12-S ) :   1.6521 B( 11-P , 13-O ) :   1.0753
B( 11-P , 16-O ) :   1.1472 B( 12-S , 30-H ) :   0.1186 B( 13-O , 14-C ) :   0.9190
B( 14-C , 15-C ) :   1.1667 B( 14-C , 31-H ) :   0.9341 B( 14-C , 32-H ) :   0.9011
B( 15-C , 33-H ) :   0.9284 B( 15-C , 34-H ) :   0.9438 B( 15-C , 35-H ) :   0.9367
B( 16-O , 17-C ) :   0.8900 B( 17-C , 18-C ) :   1.1643 B( 17-C , 36-H ) :   0.9166
B( 17-C , 37-H ) :   0.9293 B( 18-C , 38-H ) :   0.9404 B( 18-C , 39-H ) :   0.9494
B( 18-C , 40-H ) :   0.9495

Dispersion correction           -0.063509568
FINAL SINGLE POINT ENERGY     -2929.519470111646

DIPOLE MOMENT
-------------

Method             : SCF
Type of density    : Electron Density
Multiplicity       :   1
Irrep              :   0
Energy             : -2929.6407161495840228 Eh
Relativity type    :
Basis              : AO
                                X                 Y                 Z
Electronic contribution:      1.516189715       0.108087135     -14.759995506
Nuclear contribution   :     -1.224785289      -0.290599623      16.806184247
                        -----------------------------------------
Total Dipole Moment    :      0.291404427      -0.182512488       2.046188740
                        -----------------------------------------
Magnitude (a.u.)       :      2.074877276
Magnitude (Debye)      :      5.273918910

Rotational constants in cm-1:             0.012382             0.004429             0.004261
Rotational constants in MHz :           371.192396           132.770867           127.732292

                             ****ORCA TERMINATED NORMALLY****
TOTAL RUN TIME: 0 days 0 hours 0 minutes 22 seconds 198 msec
