                         Program Version 6.0.0  -   RELEASE  -
|  1> ! r2scan-3c def2/J RI DEFGRID2 scfconv6 printgap
|  2> %output
|  3>     printlevel normal
|  4> end
|  5> * xyz 0 1
|  6> C 4.5440364175 -1.3363554252 -2.2850615315
|  7> C 3.8071207 -2.2185598416 -1.2997166445
|  8> O 3.4099268924 -1.5136697241 -0.1076170975
|  9> P 2.5520164783 -0.1769706663 -0.0673350893
| 10> S 3.4264468956 1.5230500445 -0.4803721638
| 11> O 2.0671169512 -0.1669481576 1.4303670578
| 12> C 1.4230966257 -1.2979161841 2.07030408
| 13> C 0.5413338434 -0.7674873786 3.1816485556
| 14> S 0.8648032756 -0.6624007581 -1.287796922
| 15> C 0.2398751399 1.0248052415 -1.403438007
| 16> S -0.4611525889 1.6182440095 0.1607319074
| 17> P -2.2470108642 0.5016598038 0.0367968665
| 18> S -3.1121302876 0.4455282821 -1.7265379463
| 19> O -3.1485720429 1.0946997112 1.202757343
| 20> C -3.9332223736 2.2932772406 1.0415727839
| 21> C -5.1110438298 2.2139415328 1.9920817077
| 22> O -1.8147708973 -0.888643896 0.647097031
| 23> C -2.5811846709 -2.0991370623 0.4287109871
| 24> C -1.6231843963 -3.2568369072 0.2374927898
| 25> H 4.892192618 -1.9383504547 -3.11816674
| 26> H 3.8820282703 -0.5578394582 -2.6616192067
| 27> H 5.3945391609 -0.8583814121 -1.8047990701
| 28> H 4.4473989106 -3.0175294125 -0.9218800054
| 29> H 2.9100820787 -2.6440582141 -1.7577662151
| 30> H 0.8379926531 -1.8381341413 1.3204954197
| 31> H 2.2115544625 -1.9472953938 2.4550569686
| 32> H 0.1152243577 -1.6020689158 3.7291946727
| 33> H 1.1278099583 -0.1524858544 3.8582055692
| 34> H -0.2629664106 -0.1623787395 2.7693009548
| 35> H -0.5330365876 1.0327250344 -2.1726943348
| 36> H 1.0632199234 1.6956813778 -1.6524022003
| 37> H -3.2919198283 3.1485875537 1.2687610511
| 38> H -4.2640768991 2.3583890857 -0.0005719932
| 39> H -5.6947450203 3.1250436857 1.9116463517
| 40> H -5.7382401876 1.3632484797 1.7406801322
| 41> H -4.756127139 2.1019871291 3.0124227532
| 42> H -3.2147856611 -2.2409743103 1.3061360203
| 43> H -3.2112628754 -1.9591719883 -0.4560871585
| 44> H -0.9695492786 -3.0635947864 -0.6098985558
| 45> H -1.0205832129 -3.3990270777 1.1298857284
| 46> H -2.1958207978 -4.1587074576 0.0465238095
| 47> *
| 48>
| 49>                          ****END OF INPUT****

CARTESIAN COORDINATES (ANGSTROEM)
---------------------------------
  C      4.544036   -1.336355   -2.285062
  C      3.807121   -2.218560   -1.299717
  O      3.409927   -1.513670   -0.107617
  P      2.552016   -0.176971   -0.067335
  S      3.426447    1.523050   -0.480372
  O      2.067117   -0.166948    1.430367
  C      1.423097   -1.297916    2.070304
  C      0.541334   -0.767487    3.181649
  S      0.864803   -0.662401   -1.287797
  C      0.239875    1.024805   -1.403438
  S     -0.461153    1.618244    0.160732
  P     -2.247011    0.501660    0.036797
  S     -3.112130    0.445528   -1.726538
  O     -3.148572    1.094700    1.202757
  C     -3.933222    2.293277    1.041573
  C     -5.111044    2.213942    1.992082
  O     -1.814771   -0.888644    0.647097
  C     -2.581185   -2.099137    0.428711
  C     -1.623184   -3.256837    0.237493
  H      4.892193   -1.938350   -3.118167
  H      3.882028   -0.557839   -2.661619
  H      5.394539   -0.858381   -1.804799
  H      4.447399   -3.017529   -0.921880
  H      2.910082   -2.644058   -1.757766
  H      0.837993   -1.838134    1.320495
  H      2.211554   -1.947295    2.455057
  H      0.115224   -1.602069    3.729195
  H      1.127810   -0.152486    3.858206
  H     -0.262966   -0.162379    2.769301
  H     -0.533037    1.032725   -2.172694
  H      1.063220    1.695681   -1.652402
  H     -3.291920    3.148588    1.268761
  H     -4.264077    2.358389   -0.000572
  H     -5.694745    3.125044    1.911646
  H     -5.738240    1.363248    1.740680
  H     -4.756127    2.101987    3.012423
  H     -3.214786   -2.240974    1.306136
  H     -3.211263   -1.959172   -0.456087
  H     -0.969549   -3.063595   -0.609899
  H     -1.020583   -3.399027    1.129886
  H     -2.195821   -4.158707    0.046524

 Total Charge           Charge          ....    0
 Multiplicity           Mult            ....    1
 Number of Electrons    NEL             ....  202
 Basis Dimension        Dim             ....  539

ORBITAL ENERGIES
----------------

  NO   OCC          E(Eh)            E(eV)
   0   2.0000     -88.577542     -2410.3175
   1   2.0000     -88.576270     -2410.2829
   2   2.0000     -88.522928     -2408.8313
   3   2.0000     -88.516116     -2408.6460
   4   2.0000     -76.916693     -2093.0096
   5   2.0000     -76.913053     -2092.9106
   6   2.0000     -18.996340      -516.9167
   7   2.0000     -18.996179      -516.9123
   8   2.0000     -18.995537      -516.8949
   9   2.0000     -18.987453      -516.6749
  10   2.0000     -10.106438      -275.0102
  11   2.0000     -10.103617      -274.9334
  12   2.0000     -10.103143      -274.9205
  13   2.0000     -10.101015      -274.8626
  14   2.0000     -10.097709      -274.7726
  15   2.0000     -10.037382      -273.1311
  16   2.0000     -10.035244      -273.0729
  17   2.0000     -10.028396      -272.8865
  18   2.0000     -10.027283      -272.8563
  19   2.0000      -7.871653      -214.1986
  20   2.0000      -7.870724      -214.1733
  21   2.0000      -7.817770      -212.7323
  22   2.0000      -7.810917      -212.5459
  23   2.0000      -6.595404      -179.4701
  24   2.0000      -6.591385      -179.3607
  25   2.0000      -5.818553      -158.3309
  26   2.0000      -5.817433      -158.3004
  27   2.0000      -5.815534      -158.2487
  28   2.0000      -5.814484      -158.2201
  29   2.0000      -5.808761      -158.0644
  30   2.0000      -5.808086      -158.0460
  31   2.0000      -5.765264      -156.8808
  32   2.0000      -5.758719      -156.7027
  33   2.0000      -5.758048      -156.6844
  34   2.0000      -5.757897      -156.6804
  35   2.0000      -5.751166      -156.4972
  36   2.0000      -5.750804      -156.4873
  37   2.0000      -4.740902      -129.0065
  38   2.0000      -4.740307      -128.9903
  39   2.0000      -4.739095      -128.9573
  40   2.0000      -4.737202      -128.9058
  41   2.0000      -4.736617      -128.8899
  42   2.0000      -4.734578      -128.8344
  43   2.0000      -1.054284       -28.6885
  44   2.0000      -1.051339       -28.6084
  45   2.0000      -1.015100       -27.6223
  46   2.0000      -1.009031       -27.4571
  47   2.0000      -0.804111       -21.8810
  48   2.0000      -0.763595       -20.7785
  49   2.0000      -0.753727       -20.5099
  50   2.0000      -0.737769       -20.0757
  51   2.0000      -0.734081       -19.9753
  52   2.0000      -0.712337       -19.3837
  53   2.0000      -0.684273       -18.6200
  54   2.0000      -0.669584       -18.2203
  55   2.0000      -0.630540       -17.1579
  56   2.0000      -0.621032       -16.8991
  57   2.0000      -0.606898       -16.5145
  58   2.0000      -0.602665       -16.3994
  59   2.0000      -0.594040       -16.1646
  60   2.0000      -0.539544       -14.6817
  61   2.0000      -0.528194       -14.3729
  62   2.0000      -0.504881       -13.7385
  63   2.0000      -0.494094       -13.4450
  64   2.0000      -0.479627       -13.0513
  65   2.0000      -0.465037       -12.6543
  66   2.0000      -0.459452       -12.5023
  67   2.0000      -0.455510       -12.3951
  68   2.0000      -0.451179       -12.2772
  69   2.0000      -0.437206       -11.8970
  70   2.0000      -0.428959       -11.6726
  71   2.0000      -0.416515       -11.3339
  72   2.0000      -0.408784       -11.1236
  73   2.0000      -0.401605       -10.9282
  74   2.0000      -0.398415       -10.8414
  75   2.0000      -0.394711       -10.7406
  76   2.0000      -0.377812       -10.2808
  77   2.0000      -0.376041       -10.2326
  78   2.0000      -0.371246       -10.1021
  79   2.0000      -0.366784        -9.9807
  80   2.0000      -0.362480        -9.8636
  81   2.0000      -0.361126        -9.8267
  82   2.0000      -0.359140        -9.7727
  83   2.0000      -0.354344        -9.6422
  84   2.0000      -0.351559        -9.5664
  85   2.0000      -0.334561        -9.1039
  86   2.0000      -0.328964        -8.9516
  87   2.0000      -0.317849        -8.6491
  88   2.0000      -0.313020        -8.5177
  89   2.0000      -0.310657        -8.4534
  90   2.0000      -0.308215        -8.3870
  91   2.0000      -0.296341        -8.0639
  92   2.0000      -0.290124        -7.8947
  93   2.0000      -0.281600        -7.6627
  94   2.0000      -0.271624        -7.3913
  95   2.0000      -0.249515        -6.7897
  96   2.0000      -0.234658        -6.3854
  97   2.0000      -0.225567        -6.1380
  98   2.0000      -0.216797        -5.8994
  99   2.0000      -0.213525        -5.8103
 100   2.0000      -0.211056        -5.7431
 101   0.0000      -0.047374        -1.2891
 102   0.0000      -0.025997        -0.7074
 103   0.0000      -0.006049        -0.1646
 104   0.0000      -0.000759        -0.0207
 105   0.0000       0.012969         0.3529

MULLIKEN ATOMIC CHARGES
-----------------------
   0 C :   -0.426345
   1 C :   -0.160269
   2 O :   -0.293028
   3 P :    0.653286
   4 S :   -0.431315
   5 O :   -0.261968
   6 C :   -0.106941
   7 C :   -0.457533
   8 S :   -0.182206
   9 C :   -0.237144
  10 S :   -0.115112
  11 P :    0.688213
  12 S :   -0.499197
  13 O :   -0.299309
  14 C :   -0.143203
  15 C :   -0.444324
  16 O :   -0.257910
  17 C :   -0.115420
  18 C :   -0.480561
  19 H :    0.146319
  20 H :    0.169946
  21 H :    0.165248
  22 H :    0.149829
  23 H :    0.150014
  24 H :    0.156562
  25 H :    0.153860
  26 H :    0.140384
  27 H :    0.155589
  28 H :    0.172271
  29 H :    0.215809
  30 H :    0.219223
  31 H :    0.151311
  32 H :    0.170485
  33 H :    0.148019
  34 H :    0.156426
  35 H :    0.153986
  36 H :    0.150699
  37 H :    0.172232
  38 H :    0.172887
  39 H :    0.150329
  40 H :    0.148858
Sum of atomic charges:    0.0000000

LOEWDIN ATOMIC CHARGES
----------------------
   0 C :   -0.405449
   1 C :    0.024137
   2 O :   -0.661767
   3 P :    0.378311
   4 S :   -0.101625
   5 O :   -0.654033
   6 C :    0.022179
   7 C :   -0.390384
   8 S :    0.130235
   9 C :   -0.423388
  10 S :    0.185665
  11 P :    0.367882
  12 S :   -0.145542
  13 O :   -0.662543
  14 C :    0.022485
  15 C :   -0.385974
  16 O :   -0.673038
  17 C :    0.024324
  18 C :   -0.396099
  19 H :    0.158384
  20 H :    0.167268
  21 H :    0.166004
  22 H :    0.181318
  23 H :    0.170933
  24 H :    0.177761
  25 H :    0.173320
  26 H :    0.158298
  27 H :    0.162353
  28 H :    0.168546
  29 H :    0.193061
  30 H :    0.194663
  31 H :    0.172271
  32 H :    0.181606
  33 H :    0.160590
  34 H :    0.160422
  35 H :    0.159804
  36 H :    0.172632
  37 H :    0.184123
  38 H :    0.165433
  39 H :    0.155452
  40 H :    0.160382

  Mayer bond orders larger than 0.100000
B(  0-C ,  1-C ) :   0.9445 B(  0-C , 19-H ) :   0.9619 B(  0-C , 20-H ) :   0.9540
B(  0-C , 21-H ) :   0.9658 B(  1-C ,  2-O ) :   0.8043 B(  1-C , 22-H ) :   0.9586
B(  1-C , 23-H ) :   0.9616 B(  2-O ,  3-P ) :   1.0411 B(  3-P ,  4-S ) :   1.8624
B(  3-P ,  5-O ) :   1.1588 B(  3-P ,  8-S ) :   0.9793 B(  5-O ,  6-C ) :   0.7386
B(  6-C ,  7-C ) :   0.9485 B(  6-C , 24-H ) :   0.9475 B(  6-C , 25-H ) :   0.9482
B(  7-C , 26-H ) :   0.9676 B(  7-C , 27-H ) :   0.9714 B(  7-C , 28-H ) :   0.9625
B(  8-S ,  9-C ) :   0.9208 B(  9-C , 10-S ) :   0.9190 B(  9-C , 29-H ) :   0.9026
B(  9-C , 30-H ) :   0.9019 B( 10-S , 11-P ) :   1.0883 B( 11-P , 12-S ) :   1.7417
B( 11-P , 13-O ) :   1.0842 B( 11-P , 16-O ) :   1.1549 B( 13-O , 14-C ) :   0.7730
B( 14-C , 15-C ) :   0.9586 B( 14-C , 31-H ) :   0.9454 B( 14-C , 32-H ) :   0.9522
B( 15-C , 33-H ) :   0.9645 B( 15-C , 34-H ) :   0.9718 B( 15-C , 35-H ) :   0.9716
B( 16-O , 17-C ) :   0.7567 B( 17-C , 18-C ) :   0.9463 B( 17-C , 36-H ) :   0.9494
B( 17-C , 37-H ) :   0.9508 B( 18-C , 38-H ) :   0.9694 B( 18-C , 39-H ) :   0.9736
B( 18-C , 40-H ) :   0.9626

Dispersion correction           -0.021434706
FINAL SINGLE POINT ENERGY     -2932.462593277348

DIPOLE MOMENT
-------------

Method             : SCF
Type of density    : Electron Density
Multiplicity       :   1
Irrep              :   0
Energy             : -2932.4876793134703803 Eh
Relativity type    :
Basis              : AO
                                X                 Y                 Z
Electronic contribution:      7.269903785      12.648421714      -8.302247760
Nuclear contribution   :     -8.045385310     -14.201178380       8.982489556
                        -----------------------------------------
Total Dipole Moment    :     -0.775481525      -1.552756666       0.680241797
                        -----------------------------------------
Magnitude (a.u.)       :      1.864176430
Magnitude (Debye)      :      4.738359922

Rotational constants in cm-1:             0.013027             0.004663             0.004546
Rotational constants in MHz :           390.552652           139.793123           136.295032

                             ****ORCA TERMINATED NORMALLY****
TOTAL RUN TIME: 0 days 0 hours 1 minutes 20 seconds 33 msec
