                         Program Version 6.0.0  -   RELEASE  -
|  1> ! r2scan-3c def2/J RI DEFGRID2 scfconv6 printgap
|  2> %output
|  3>     printlevel normal
|  4> end
|  5> %cpcm
|  6>     smd true
|  7>     smdsolvent "water"
|  8> end
|  9> * xyz 0 1
| 10> C 4.5440364175 -1.3363554252 -2.2850615315
| 11> C 3.8071207 -2.2185598416 -1.2997166445
| 12> O 3.4099268924 -1.5136697241 -0.1076170975
| 13> P 2.5520164783 -0.1769706663 -0.0673350893
| 14> S 3.4264468956 1.5230500445 -0.4803721638
| 15> O 2.0671169512 -0.1669481576 1.4303670578
| 16> C 1.4230966257 -1.2979161841 2.07030408
| 17> C 0.5413338434 -0.7674873786 3.1816485556
| 18> S 0.8648032756 -0.6624007581 -1.287796922
| 19> C 0.2398751399 1.0248052415 -1.403438007
| 20> S -0.4611525889 1.6182440095 0.1607319074
| 21> P -2.2470108642 0.5016598038 0.0367968665
| 22> S -3.1121302876 0.4455282821 -1.7265379463
| 23> O -3.1485720429 1.0946997112 1.202757343
| 24> C -3.9332223736 2.2932772406 1.0415727839
| 25> C -5.1110438298 2.2139415328 1.9920817077
| 26> O -1.8147708973 -0.888643896 0.647097031
| 27> C -2.5811846709 -2.0991370623 0.4287109871
| 28> C -1.6231843963 -3.2568369072 0.2374927898
| 29> H 4.892192618 -1.9383504547 -3.11816674
| 30> H 3.8820282703 -0.5578394582 -2.6616192067
| 31> H 5.3945391609 -0.8583814121 -1.8047990701
| 32> H 4.4473989106 -3.0175294125 -0.9218800054
| 33> H 2.9100820787 -2.6440582141 -1.7577662151
| 34> H 0.8379926531 -1.8381341413 1.3204954197
| 35> H 2.2115544625 -1.9472953938 2.4550569686
| 36> H 0.1152243577 -1.6020689158 3.7291946727
| 37> H 1.1278099583 -0.1524858544 3.8582055692
| 38> H -0.2629664106 -0.1623787395 2.7693009548
| 39> H -0.5330365876 1.0327250344 -2.1726943348
| 40> H 1.0632199234 1.6956813778 -1.6524022003
| 41> H -3.2919198283 3.1485875537 1.2687610511
| 42> H -4.2640768991 2.3583890857 -0.0005719932
| 43> H -5.6947450203 3.1250436857 1.9116463517
| 44> H -5.7382401876 1.3632484797 1.7406801322
| 45> H -4.756127139 2.1019871291 3.0124227532
| 46> H -3.2147856611 -2.2409743103 1.3061360203
| 47> H -3.2112628754 -1.9591719883 -0.4560871585
| 48> H -0.9695492786 -3.0635947864 -0.6098985558
| 49> H -1.0205832129 -3.3990270777 1.1298857284
| 50> H -2.1958207978 -4.1587074576 0.0465238095
| 51> *
| 52>
| 53>                          ****END OF INPUT****

CARTESIAN COORDINATES (ANGSTROEM)
---------------------------------
  C      4.544036   -1.336355   -2.285062
  C      3.807121   -2.218560   -1.299717
  O      3.409927   -1.513670   -0.107617
  P      2.552016   -0.176971   -0.067335
  S      3.426447    1.523050   -0.480372
  O      2.067117   -0.166948    1.430367
  C      1.423097   -1.297916    2.070304
  C      0.541334   -0.767487    3.181649
  S      0.864803   -0.662401   -1.287797
  C      0.239875    1.024805   -1.403438
  S     -0.461153    1.618244    0.160732
  P     -2.247011    0.501660    0.036797
  S     -3.112130    0.445528   -1.726538
  O     -3.148572    1.094700    1.202757
  C     -3.933222    2.293277    1.041573
  C     -5.111044    2.213942    1.992082
  O     -1.814771   -0.888644    0.647097
  C     -2.581185   -2.099137    0.428711
  C     -1.623184   -3.256837    0.237493
  H      4.892193   -1.938350   -3.118167
  H      3.882028   -0.557839   -2.661619
  H      5.394539   -0.858381   -1.804799
  H      4.447399   -3.017529   -0.921880
  H      2.910082   -2.644058   -1.757766
  H      0.837993   -1.838134    1.320495
  H      2.211554   -1.947295    2.455057
  H      0.115224   -1.602069    3.729195
  H      1.127810   -0.152486    3.858206
  H     -0.262966   -0.162379    2.769301
  H     -0.533037    1.032725   -2.172694
  H      1.063220    1.695681   -1.652402
  H     -3.291920    3.148588    1.268761
  H     -4.264077    2.358389   -0.000572
  H     -5.694745    3.125044    1.911646
  H     -5.738240    1.363248    1.740680
  H     -4.756127    2.101987    3.012423
  H     -3.214786   -2.240974    1.306136
  H     -3.211263   -1.959172   -0.456087
  H     -0.969549   -3.063595   -0.609899
  H     -1.020583   -3.399027    1.129886
  H     -2.195821   -4.158707    0.046524

 Total Charge           Charge          ....    0
 Multiplicity           Mult            ....    1
 Number of Electrons    NEL             ....  202
 Basis Dimension        Dim             ....  539

ORBITAL ENERGIES
----------------

  NO   OCC          E(Eh)            E(eV)
   0   2.0000     -88.581906     -2410.4362
   1   2.0000     -88.579488     -2410.3704
   2   2.0000     -88.528741     -2408.9895
   3   2.0000     -88.528292     -2408.9773
   4   2.0000     -76.920591     -2093.1157
   5   2.0000     -76.920027     -2093.1003
   6   2.0000     -18.997283      -516.9424
   7   2.0000     -18.996443      -516.9195
   8   2.0000     -18.994738      -516.8731
   9   2.0000     -18.993644      -516.8433
  10   2.0000     -10.104699      -274.9629
  11   2.0000     -10.093918      -274.6695
  12   2.0000     -10.090452      -274.5752
  13   2.0000     -10.090101      -274.5656
  14   2.0000     -10.089589      -274.5517
  15   2.0000     -10.019547      -272.6457
  16   2.0000     -10.019030      -272.6317
  17   2.0000     -10.018819      -272.6259
  18   2.0000     -10.018594      -272.6198
  19   2.0000      -7.876134      -214.3205
  20   2.0000      -7.873848      -214.2583
  21   2.0000      -7.823868      -212.8983
  22   2.0000      -7.823487      -212.8879
  23   2.0000      -6.598974      -179.5672
  24   2.0000      -6.598719      -179.5603
  25   2.0000      -5.822983      -158.4514
  26   2.0000      -5.820603      -158.3867
  27   2.0000      -5.819992      -158.3700
  28   2.0000      -5.817636      -158.3059
  29   2.0000      -5.813313      -158.1883
  30   2.0000      -5.811141      -158.1292
  31   2.0000      -5.771306      -157.0452
  32   2.0000      -5.771148      -157.0409
  33   2.0000      -5.764153      -156.8506
  34   2.0000      -5.763995      -156.8463
  35   2.0000      -5.763742      -156.8394
  36   2.0000      -5.763432      -156.8310
  37   2.0000      -4.744728      -129.1106
  38   2.0000      -4.744154      -129.0950
  39   2.0000      -4.744139      -129.0946
  40   2.0000      -4.743626      -129.0806
  41   2.0000      -4.742527      -129.0507
  42   2.0000      -4.742319      -129.0450
  43   2.0000      -1.054741       -28.7010
  44   2.0000      -1.053293       -28.6616
  45   2.0000      -1.013351       -27.5747
  46   2.0000      -1.012102       -27.5407
  47   2.0000      -0.806769       -21.9533
  48   2.0000      -0.758892       -20.6505
  49   2.0000      -0.747801       -20.3487
  50   2.0000      -0.726216       -19.7613
  51   2.0000      -0.724366       -19.7110
  52   2.0000      -0.711331       -19.3563
  53   2.0000      -0.688252       -18.7283
  54   2.0000      -0.675495       -18.3812
  55   2.0000      -0.625569       -17.0226
  56   2.0000      -0.616835       -16.7849
  57   2.0000      -0.599856       -16.3229
  58   2.0000      -0.597122       -16.2485
  59   2.0000      -0.589729       -16.0473
  60   2.0000      -0.534196       -14.5362
  61   2.0000      -0.524443       -14.2708
  62   2.0000      -0.498615       -13.5680
  63   2.0000      -0.490576       -13.3492
  64   2.0000      -0.479673       -13.0526
  65   2.0000      -0.458524       -12.4771
  66   2.0000      -0.453781       -12.3480
  67   2.0000      -0.447602       -12.1799
  68   2.0000      -0.445047       -12.1103
  69   2.0000      -0.434545       -11.8246
  70   2.0000      -0.427052       -11.6207
  71   2.0000      -0.411945       -11.2096
  72   2.0000      -0.405584       -11.0365
  73   2.0000      -0.399271       -10.8647
  74   2.0000      -0.394038       -10.7223
  75   2.0000      -0.388787       -10.5794
  76   2.0000      -0.375485       -10.2175
  77   2.0000      -0.363952        -9.9036
  78   2.0000      -0.362007        -9.8507
  79   2.0000      -0.358992        -9.7687
  80   2.0000      -0.356178        -9.6921
  81   2.0000      -0.353705        -9.6248
  82   2.0000      -0.349186        -9.5018
  83   2.0000      -0.348513        -9.4835
  84   2.0000      -0.344959        -9.3868
  85   2.0000      -0.329783        -8.9739
  86   2.0000      -0.323480        -8.8023
  87   2.0000      -0.312281        -8.4976
  88   2.0000      -0.311682        -8.4813
  89   2.0000      -0.308790        -8.4026
  90   2.0000      -0.304874        -8.2960
  91   2.0000      -0.290662        -7.9093
  92   2.0000      -0.288239        -7.8434
  93   2.0000      -0.280002        -7.6192
  94   2.0000      -0.273051        -7.4301
  95   2.0000      -0.253217        -6.8904
  96   2.0000      -0.240538        -6.5454
  97   2.0000      -0.233135        -6.3439
  98   2.0000      -0.225955        -6.1486
  99   2.0000      -0.223378        -6.0784
 100   2.0000      -0.221389        -6.0243
 101   0.0000      -0.052500        -1.4286
 102   0.0000      -0.032284        -0.8785
 103   0.0000      -0.009409        -0.2560
 104   0.0000      -0.005480        -0.1491
 105   0.0000       0.013358         0.3635

MULLIKEN ATOMIC CHARGES
-----------------------
   0 C :   -0.464590
   1 C :   -0.160445
   2 O :   -0.314498
   3 P :    0.671295
   4 S :   -0.495072
   5 O :   -0.292508
   6 C :   -0.105255
   7 C :   -0.502005
   8 S :   -0.170825
   9 C :   -0.243973
  10 S :   -0.140626
  11 P :    0.718760
  12 S :   -0.543152
  13 O :   -0.322922
  14 C :   -0.137642
  15 C :   -0.484203
  16 O :   -0.277989
  17 C :   -0.111815
  18 C :   -0.507242
  19 H :    0.173769
  20 H :    0.164359
  21 H :    0.170597
  22 H :    0.177878
  23 H :    0.172383
  24 H :    0.174186
  25 H :    0.176471
  26 H :    0.172350
  27 H :    0.166813
  28 H :    0.168052
  29 H :    0.233964
  30 H :    0.233142
  31 H :    0.172192
  32 H :    0.170762
  33 H :    0.169649
  34 H :    0.166384
  35 H :    0.166033
  36 H :    0.174639
  37 H :    0.170162
  38 H :    0.170163
  39 H :    0.170990
  40 H :    0.169769
Sum of atomic charges:    0.0000000

LOEWDIN ATOMIC CHARGES
----------------------
   0 C :   -0.409078
   1 C :    0.031823
   2 O :   -0.669120
   3 P :    0.380828
   4 S :   -0.149704
   5 O :   -0.677383
   6 C :    0.028676
   7 C :   -0.395071
   8 S :    0.143571
   9 C :   -0.420042
  10 S :    0.169260
  11 P :    0.373533
  12 S :   -0.174800
  13 O :   -0.672846
  14 C :    0.026479
  15 C :   -0.389834
  16 O :   -0.679889
  17 C :    0.030592
  18 C :   -0.397452
  19 H :    0.168838
  20 H :    0.161990
  21 H :    0.164451
  22 H :    0.193402
  23 H :    0.179627
  24 H :    0.184454
  25 H :    0.183617
  26 H :    0.170520
  27 H :    0.164499
  28 H :    0.164426
  29 H :    0.198130
  30 H :    0.198371
  31 H :    0.180465
  32 H :    0.181907
  33 H :    0.168931
  34 H :    0.162530
  35 H :    0.163238
  36 H :    0.182770
  37 H :    0.183602
  38 H :    0.163643
  39 H :    0.162902
  40 H :    0.168147

  Mayer bond orders larger than 0.100000
B(  0-C ,  1-C ) :   0.9225 B(  0-C , 19-H ) :   0.9559 B(  0-C , 20-H ) :   0.9574
B(  0-C , 21-H ) :   0.9669 B(  1-C ,  2-O ) :   0.7926 B(  1-C , 22-H ) :   0.9487
B(  1-C , 23-H ) :   0.9572 B(  2-O ,  3-P ) :   1.0598 B(  3-P ,  4-S ) :   1.8270
B(  3-P ,  5-O ) :   1.1643 B(  3-P ,  8-S ) :   0.9954 B(  5-O ,  6-C ) :   0.7269
B(  6-C ,  7-C ) :   0.9342 B(  6-C , 24-H ) :   0.9421 B(  6-C , 25-H ) :   0.9377
B(  7-C , 26-H ) :   0.9608 B(  7-C , 27-H ) :   0.9697 B(  7-C , 28-H ) :   0.9645
B(  8-S ,  9-C ) :   0.9096 B(  9-C , 10-S ) :   0.9043 B(  9-C , 29-H ) :   0.8995
B(  9-C , 30-H ) :   0.8983 B( 10-S , 11-P ) :   1.0936 B( 11-P , 12-S ) :   1.7095
B( 11-P , 13-O ) :   1.0919 B( 11-P , 16-O ) :   1.1691 B( 13-O , 14-C ) :   0.7650
B( 14-C , 15-C ) :   0.9541 B( 14-C , 31-H ) :   0.9370 B( 14-C , 32-H ) :   0.9498
B( 15-C , 33-H ) :   0.9589 B( 15-C , 34-H ) :   0.9691 B( 15-C , 35-H ) :   0.9688
B( 16-O , 17-C ) :   0.7464 B( 17-C , 18-C ) :   0.9451 B( 17-C , 36-H ) :   0.9396
B( 17-C , 37-H ) :   0.9504 B( 18-C , 38-H ) :   0.9680 B( 18-C , 39-H ) :   0.9676
B( 18-C , 40-H ) :   0.9580

Dispersion correction           -0.021434706
FINAL SINGLE POINT ENERGY     -2932.472667840396

DIPOLE MOMENT
-------------

Method             : SCF
Type of density    : Electron Density
Multiplicity       :   1
Irrep              :   0
Energy             : -2932.4977538765178906 Eh
Relativity type    :
Basis              : AO
                                X                 Y                 Z
Electronic contribution:      6.960422915      11.869556092      -8.227585656
Nuclear contribution   :     -8.045385310     -14.201178380       8.982489556
                        -----------------------------------------
Total Dipole Moment    :     -1.084962396      -2.331622288       0.754903900
                        -----------------------------------------
Magnitude (a.u.)       :      2.680202566
Magnitude (Debye)      :      6.812533521

Rotational constants in cm-1:             0.013027             0.004663             0.004546
Rotational constants in MHz :           390.552652           139.793123           136.295032

                             ****ORCA TERMINATED NORMALLY****
TOTAL RUN TIME: 0 days 0 hours 1 minutes 51 seconds 939 msec
