                         Program Version 6.0.1  -  RELEASE   -
|  1> ! pbe def2-sv(p) def2/J RI DEFGRID1 loosescf d4 GCP(DFT/SV(P)) printgap
|  2> %output
|  3>     printlevel normal
|  4> end
|  5> * xyz 0 1
|  6> C 4.1937687031 -3.7178664953 -1.0662802185
|  7> C 3.1476526131 -2.9418527881 -1.8506344415
|  8> O 2.8455630707 -1.6876165765 -1.2094462917
|  9> C 1.9411012837 -1.6723559841 -0.2535051769
| 10> O 1.3290457083 -2.6410636001 0.1375584278
| 11> C 1.7158808852 -0.2638257678 0.2669933141
| 12> C 0.8969992087 0.515456456 -0.7681920417
| 13> H 1.4998728571 0.6949885772 -1.661687848
| 14> C 0.4082138106 1.8353343147 -0.2032643666
| 15> O -0.7740821003 2.1053254448 -0.1043166031
| 16> O 1.3829084077 2.6116130704 0.1630917508
| 17> C 1.0461566318 3.8795798017 0.7736240645
| 18> C 2.3372372379 4.540815661 1.2102693198
| 19> S -0.5627567893 -0.4116668763 -1.3601091118
| 20> P -1.9258353557 -0.1466245947 0.2467429369
| 21> S -1.3353440102 0.1921558715 2.0948315909
| 22> O -3.1615060781 0.6803252118 -0.3010858272
| 23> C -3.5634666172 1.9742577552 0.1546831899
| 24> O -2.6795648829 -1.5586383798 0.133795847
| 25> C -2.0645109602 -2.7559900033 0.6150018091
| 26> H 4.4475821748 -4.6238868267 -1.6064467582
| 27> H 5.0883016526 -3.1151539364 -0.9364757623
| 28> H 3.8028864482 -3.9887631299 -0.0881072391
| 29> H 2.222629187 -3.5181966874 -1.940401498
| 30> H 3.5170225379 -2.6597606977 -2.8364588253
| 31> H 2.6719049391 0.2387328915 0.4092015687
| 32> H 1.1769099214 -0.3259197934 1.2143559635
| 33> H 0.5087174302 4.4809682124 0.0350014353
| 34> H 0.3776096899 3.6833817681 1.6172167471
| 35> H 2.9908194249 4.6829927155 0.3552397595
| 36> H 2.1109076743 5.5050730391 1.6526470837
| 37> H 2.8449507673 3.9227964636 1.9442035619
| 38> H -3.1768197927 2.7300103153 -0.5262554346
| 39> H -3.1839473386 2.1584910209 1.1609864171
| 40> H -4.6512193687 1.9668433122 0.1534396292
| 41> H -1.9446581576 -2.7004131466 1.6982701282
| 42> H -1.0856816752 -2.9099514283 0.1562228166
| 43> H -2.7419770527 -3.5615951301 0.345952346
| 44> *
| 45>
| 46>                          ****END OF INPUT****

CARTESIAN COORDINATES (ANGSTROEM)
---------------------------------
  C      4.193769   -3.717866   -1.066280
  C      3.147653   -2.941853   -1.850634
  O      2.845563   -1.687617   -1.209446
  C      1.941101   -1.672356   -0.253505
  O      1.329046   -2.641064    0.137558
  C      1.715881   -0.263826    0.266993
  C      0.896999    0.515456   -0.768192
  H      1.499873    0.694989   -1.661688
  C      0.408214    1.835334   -0.203264
  O     -0.774082    2.105325   -0.104317
  O      1.382908    2.611613    0.163092
  C      1.046157    3.879580    0.773624
  C      2.337237    4.540816    1.210269
  S     -0.562757   -0.411667   -1.360109
  P     -1.925835   -0.146625    0.246743
  S     -1.335344    0.192156    2.094832
  O     -3.161506    0.680325   -0.301086
  C     -3.563467    1.974258    0.154683
  O     -2.679565   -1.558638    0.133796
  C     -2.064511   -2.755990    0.615002
  H      4.447582   -4.623887   -1.606447
  H      5.088302   -3.115154   -0.936476
  H      3.802886   -3.988763   -0.088107
  H      2.222629   -3.518197   -1.940401
  H      3.517023   -2.659761   -2.836459
  H      2.671905    0.238733    0.409202
  H      1.176910   -0.325920    1.214356
  H      0.508717    4.480968    0.035001
  H      0.377610    3.683382    1.617217
  H      2.990819    4.682993    0.355240
  H      2.110908    5.505073    1.652647
  H      2.844951    3.922796    1.944204
  H     -3.176820    2.730010   -0.526255
  H     -3.183947    2.158491    1.160986
  H     -4.651219    1.966843    0.153440
  H     -1.944658   -2.700413    1.698270
  H     -1.085682   -2.909951    0.156223
  H     -2.741977   -3.561595    0.345952

 Total Charge           Charge          ....    0
 Multiplicity           Mult            ....    1
 Number of Electrons    NEL             ....  174
 Basis Dimension        Dim             ....  316

ORBITAL ENERGIES
----------------

  NO   OCC          E(Eh)            E(eV)
   0   2.0000     -88.032169     -2395.4771
   1   2.0000     -87.970937     -2393.8109
   2   2.0000     -76.415860     -2079.3813
   3   2.0000     -18.827900      -512.3332
   4   2.0000     -18.807889      -511.7887
   5   2.0000     -18.775557      -510.9089
   6   2.0000     -18.765983      -510.6484
   7   2.0000     -18.760539      -510.5002
   8   2.0000     -18.740414      -509.9526
   9   2.0000     -10.031371      -272.9675
  10   2.0000     -10.012261      -272.4475
  11   2.0000      -9.963573      -271.1226
  12   2.0000      -9.955353      -270.8989
  13   2.0000      -9.951996      -270.8076
  14   2.0000      -9.929616      -270.1986
  15   2.0000      -9.917021      -269.8559
  16   2.0000      -9.907328      -269.5921
  17   2.0000      -9.900465      -269.4053
  18   2.0000      -9.890299      -269.1287
  19   2.0000      -7.677117      -208.9050
  20   2.0000      -7.616049      -207.2432
  21   2.0000      -6.411550      -174.4671
  22   2.0000      -5.705294      -155.2489
  23   2.0000      -5.701738      -155.1522
  24   2.0000      -5.693637      -154.9318
  25   2.0000      -5.645127      -153.6117
  26   2.0000      -5.637003      -153.3906
  27   2.0000      -5.635667      -153.3543
  28   2.0000      -4.633891      -126.0946
  29   2.0000      -4.633757      -126.0909
  30   2.0000      -4.632191      -126.0483
  31   2.0000      -1.037732       -28.2381
  32   2.0000      -1.015090       -27.6220
  33   2.0000      -0.967162       -26.3178
  34   2.0000      -0.939670       -25.5697
  35   2.0000      -0.920666       -25.0526
  36   2.0000      -0.917756       -24.9734
  37   2.0000      -0.768613       -20.9150
  38   2.0000      -0.723353       -19.6834
  39   2.0000      -0.710715       -19.3395
  40   2.0000      -0.683839       -18.6082
  41   2.0000      -0.651610       -17.7312
  42   2.0000      -0.627839       -17.0844
  43   2.0000      -0.619165       -16.8483
  44   2.0000      -0.602205       -16.3868
  45   2.0000      -0.596959       -16.2441
  46   2.0000      -0.566947       -15.4274
  47   2.0000      -0.525850       -14.3091
  48   2.0000      -0.507084       -13.7985
  49   2.0000      -0.496668       -13.5150
  50   2.0000      -0.484279       -13.1779
  51   2.0000      -0.466190       -12.6857
  52   2.0000      -0.457568       -12.4510
  53   2.0000      -0.451851       -12.2955
  54   2.0000      -0.443943       -12.0803
  55   2.0000      -0.436744       -11.8844
  56   2.0000      -0.424042       -11.5388
  57   2.0000      -0.410359       -11.1664
  58   2.0000      -0.407999       -11.1022
  59   2.0000      -0.404515       -11.0074
  60   2.0000      -0.394281       -10.7289
  61   2.0000      -0.391551       -10.6546
  62   2.0000      -0.384253       -10.4561
  63   2.0000      -0.379954       -10.3391
  64   2.0000      -0.377239       -10.2652
  65   2.0000      -0.372286       -10.1304
  66   2.0000      -0.371074       -10.0974
  67   2.0000      -0.359896        -9.7933
  68   2.0000      -0.350466        -9.5367
  69   2.0000      -0.340966        -9.2782
  70   2.0000      -0.338033        -9.1984
  71   2.0000      -0.331591        -9.0231
  72   2.0000      -0.327590        -8.9142
  73   2.0000      -0.320332        -8.7167
  74   2.0000      -0.303716        -8.2645
  75   2.0000      -0.298863        -8.1325
  76   2.0000      -0.289573        -7.8797
  77   2.0000      -0.284803        -7.7499
  78   2.0000      -0.273098        -7.4314
  79   2.0000      -0.265100        -7.2137
  80   2.0000      -0.258804        -7.0424
  81   2.0000      -0.243931        -6.6377
  82   2.0000      -0.239807        -6.5255
  83   2.0000      -0.223166        -6.0727
  84   2.0000      -0.211914        -5.7665
  85   2.0000      -0.191861        -5.2208
  86   2.0000      -0.183647        -4.9973
  87   0.0000      -0.049260        -1.3404
  88   0.0000      -0.035562        -0.9677
  89   0.0000      -0.019964        -0.5432
  90   0.0000       0.007856         0.2138
  91   0.0000       0.030484         0.8295

MULLIKEN ATOMIC CHARGES
-----------------------
   0 C :   -0.306845
   1 C :   -0.010638
   2 O :   -0.234449
   3 C :    0.126678
   4 O :   -0.186798
   5 C :   -0.049373
   6 C :   -0.345073
   7 H :    0.150555
   8 C :    0.232473
   9 O :   -0.193031
  10 O :   -0.218464
  11 C :   -0.033570
  12 C :   -0.274596
  13 S :   -0.081748
  14 P :    0.626905
  15 S :   -0.354347
  16 O :   -0.368004
  17 C :   -0.084309
  18 O :   -0.374942
  19 C :   -0.121765
  20 H :    0.114938
  21 H :    0.113651
  22 H :    0.130113
  23 H :    0.111385
  24 H :    0.102634
  25 H :    0.108721
  26 H :    0.120209
  27 H :    0.110910
  28 H :    0.124344
  29 H :    0.117887
  30 H :    0.117548
  31 H :    0.122683
  32 H :    0.113875
  33 H :    0.114148
  34 H :    0.117960
  35 H :    0.112209
  36 H :    0.135812
  37 H :    0.112311
Sum of atomic charges:   -0.0000000

LOEWDIN ATOMIC CHARGES
----------------------
   0 C :   -0.356248
   1 C :   -0.110667
   2 O :   -0.061144
   3 C :    0.024687
   4 O :   -0.155750
   5 C :   -0.254411
   6 C :   -0.260916
   7 H :    0.148796
   8 C :    0.024122
   9 O :   -0.152686
  10 O :   -0.037563
  11 C :   -0.102497
  12 C :   -0.350097
  13 S :    0.110826
  14 P :    0.591106
  15 S :   -0.336875
  16 O :   -0.238857
  17 C :   -0.207441
  18 O :   -0.258953
  19 C :   -0.227265
  20 H :    0.131704
  21 H :    0.124702
  22 H :    0.131864
  23 H :    0.121714
  24 H :    0.117933
  25 H :    0.138621
  26 H :    0.134047
  27 H :    0.119773
  28 H :    0.126116
  29 H :    0.128197
  30 H :    0.134529
  31 H :    0.130329
  32 H :    0.111843
  33 H :    0.108075
  34 H :    0.116829
  35 H :    0.108949
  36 H :    0.110318
  37 H :    0.116292

  Mayer bond orders larger than 0.100000
B(  0-C ,  1-C ) :   1.1742 B(  0-C , 20-H ) :   0.9440 B(  0-C , 21-H ) :   0.9485
B(  0-C , 22-H ) :   0.9458 B(  1-C ,  2-O ) :   0.9131 B(  1-C , 23-H ) :   0.9143
B(  1-C , 24-H ) :   0.9369 B(  2-O ,  3-C ) :   1.2207 B(  3-C ,  4-O ) :   2.0100
B(  3-C ,  5-C ) :   1.0240 B(  5-C ,  6-C ) :   1.0416 B(  5-C , 25-H ) :   0.8772
B(  5-C , 26-H ) :   0.8695 B(  6-C ,  7-H ) :   0.8638 B(  6-C ,  8-C ) :   0.9230
B(  6-C , 13-S ) :   1.0413 B(  8-C ,  9-O ) :   1.9426 B(  8-C , 10-O ) :   1.2828
B(  9-O , 14-P ) :   0.1053 B( 10-O , 11-C ) :   0.8862 B( 11-C , 12-C ) :   1.1554
B( 11-C , 27-H ) :   0.9327 B( 11-C , 28-H ) :   0.9273 B( 12-C , 29-H ) :   0.9492
B( 12-C , 30-H ) :   0.9419 B( 12-C , 31-H ) :   0.9495 B( 13-S , 14-P ) :   0.9258
B( 13-S , 15-S ) :   0.1183 B( 14-P , 15-S ) :   1.5456 B( 14-P , 16-O ) :   1.1400
B( 14-P , 18-O ) :   1.0957 B( 16-O , 17-C ) :   0.9296 B( 17-C , 32-H ) :   0.9536
B( 17-C , 33-H ) :   0.9343 B( 17-C , 34-H ) :   0.9549 B( 18-O , 19-C ) :   0.9341
B( 19-C , 35-H ) :   0.9431 B( 19-C , 36-H ) :   0.9237 B( 19-C , 37-H ) :   0.9571

Dispersion correction           -0.051844042
FINAL SINGLE POINT ENERGY     -1979.014467850981

DIPOLE MOMENT
-------------

Method             : SCF
Type of density    : Electron Density
Multiplicity       :   1
Irrep              :   0
Energy             : -1979.1450865323913604 Eh
Relativity type    :
Basis              : AO
                                X                 Y                 Z
Electronic contribution:    -15.579170806      -1.543153919      -1.527475720
Nuclear contribution   :     17.217164019       2.626240761       0.816774896
                        -----------------------------------------
Total Dipole Moment    :      1.637993213       1.083086843      -0.710700824
                        -----------------------------------------
Magnitude (a.u.)       :      2.088347322
Magnitude (Debye)      :      5.308157046

Rotational constants in cm-1:             0.011100             0.007876             0.005364
Rotational constants in MHz :           332.758295           236.102128           160.815054

                             ****ORCA TERMINATED NORMALLY****
TOTAL RUN TIME: 0 days 0 hours 0 minutes 36 seconds 969 msec
