                         Program Version 6.0.0  -   RELEASE  -
|  1> ! r2scan-3c def2/J RI DEFGRID2 scfconv6 printgap
|  2> %output
|  3>     printlevel normal
|  4> end
|  5> * xyz 0 1
|  6> C 3.99165735 -1.9686553042 -1.6758737334
|  7> C 4.6040824211 -0.6783981671 -1.1679938569
|  8> O 3.8714287311 -0.1320555751 -0.0573834921
|  9> P 2.3963100331 0.4163379367 -0.2140105772
| 10> S 2.0018613566 1.3135880193 -1.9161068103
| 11> O 2.4441744991 1.3065676499 1.0935492904
| 12> C 1.3573591309 2.1436916224 1.522226642
| 13> C 1.8658221919 3.0041199956 2.660342349
| 14> S 1.1400132509 -1.2123164394 0.3169488136
| 15> C 0.0910784347 -1.3556380456 -1.1779468581
| 16> S -1.6082257507 -1.7755785721 -0.7552047491
| 17> P -2.1139935699 0.0230610736 0.2636127504
| 18> S -1.4223408128 1.6852801988 -0.5119030843
| 19> O -1.6243279895 -0.1467047288 1.7540532009
| 20> C -1.6560630083 -1.3612785859 2.5463392604
| 21> C -3.0266362084 -1.9985213931 2.5999784901
| 22> O -3.6947388815 -0.0337495654 0.4004470592
| 23> C -4.5812974072 0.4832357398 -0.6063008959
| 24> C -4.5091298872 -0.305004223 -1.8982403999
| 25> H 3.8485037837 -2.6676955656 -0.8555835123
| 26> H 3.0285752542 -1.7585190951 -2.1404622604
| 27> H 4.648968739 -2.4113256312 -2.41735796
| 28> H 4.6373717649 0.0709140316 -1.9652139345
| 29> H 5.6051538935 -0.8367423028 -0.7648828211
| 30> H 1.0188080395 2.7518354085 0.6761840377
| 31> H 0.5247331374 1.5089424552 1.8441435374
| 32> H 2.6887898319 3.623912709 2.3161870776
| 33> H 1.0593843152 3.6382387206 3.0135813727
| 34> H 2.2149028681 2.3721847077 3.4716865835
| 35> H 0.4570390998 -2.1724004807 -1.7950157524
| 36> H 0.1253453744 -0.4021237675 -1.7134328813
| 37> H -0.9145515996 -2.0516627459 2.1331382232
| 38> H -1.3306806935 -1.0209493952 3.5305313655
| 39> H -2.9968688086 -2.8366132589 3.2894733271
| 40> H -3.7647032742 -1.2772695156 2.9407595018
| 41> H -3.3147521987 -2.3600534208 1.6151661436
| 42> H -5.5669789747 0.4106437438 -0.1445858985
| 43> H -4.3298871506 1.5339286017 -0.7827189115
| 44> H -4.6402428184 -1.3662728461 -1.7035653135
| 45> H -5.2891083951 0.0381364249 -2.5704108172
| 46> H -3.5426267756 -0.1509219318 -2.3757019077
| 47> *
| 48>
| 49>                          ****END OF INPUT****

CARTESIAN COORDINATES (ANGSTROEM)
---------------------------------
  C      3.991657   -1.968655   -1.675874
  C      4.604082   -0.678398   -1.167994
  O      3.871429   -0.132056   -0.057383
  P      2.396310    0.416338   -0.214011
  S      2.001861    1.313588   -1.916107
  O      2.444174    1.306568    1.093549
  C      1.357359    2.143692    1.522227
  C      1.865822    3.004120    2.660342
  S      1.140013   -1.212316    0.316949
  C      0.091078   -1.355638   -1.177947
  S     -1.608226   -1.775579   -0.755205
  P     -2.113994    0.023061    0.263613
  S     -1.422341    1.685280   -0.511903
  O     -1.624328   -0.146705    1.754053
  C     -1.656063   -1.361279    2.546339
  C     -3.026636   -1.998521    2.599978
  O     -3.694739   -0.033750    0.400447
  C     -4.581297    0.483236   -0.606301
  C     -4.509130   -0.305004   -1.898240
  H      3.848504   -2.667696   -0.855584
  H      3.028575   -1.758519   -2.140462
  H      4.648969   -2.411326   -2.417358
  H      4.637372    0.070914   -1.965214
  H      5.605154   -0.836742   -0.764883
  H      1.018808    2.751835    0.676184
  H      0.524733    1.508942    1.844144
  H      2.688790    3.623913    2.316187
  H      1.059384    3.638239    3.013581
  H      2.214903    2.372185    3.471687
  H      0.457039   -2.172400   -1.795016
  H      0.125345   -0.402124   -1.713433
  H     -0.914552   -2.051663    2.133138
  H     -1.330681   -1.020949    3.530531
  H     -2.996869   -2.836613    3.289473
  H     -3.764703   -1.277270    2.940760
  H     -3.314752   -2.360053    1.615166
  H     -5.566979    0.410644   -0.144586
  H     -4.329887    1.533929   -0.782719
  H     -4.640243   -1.366273   -1.703565
  H     -5.289108    0.038136   -2.570411
  H     -3.542627   -0.150922   -2.375702

 Total Charge           Charge          ....    0
 Multiplicity           Mult            ....    1
 Number of Electrons    NEL             ....  202
 Basis Dimension        Dim             ....  539

ORBITAL ENERGIES
----------------

  NO   OCC          E(Eh)            E(eV)
   0   2.0000     -88.581824     -2410.4340
   1   2.0000     -88.573255     -2410.2008
   2   2.0000     -88.517072     -2408.6720
   3   2.0000     -88.515224     -2408.6217
   4   2.0000     -76.915610     -2092.9801
   5   2.0000     -76.908693     -2092.7919
   6   2.0000     -18.994867      -516.8766
   7   2.0000     -18.992298      -516.8067
   8   2.0000     -18.983947      -516.5795
   9   2.0000     -18.982569      -516.5420
  10   2.0000     -10.106879      -275.0222
  11   2.0000     -10.104035      -274.9448
  12   2.0000     -10.100397      -274.8458
  13   2.0000     -10.095358      -274.7086
  14   2.0000     -10.082733      -274.3651
  15   2.0000     -10.034908      -273.0637
  16   2.0000     -10.030422      -272.9417
  17   2.0000     -10.028677      -272.8942
  18   2.0000     -10.021205      -272.6909
  19   2.0000      -7.876251      -214.3237
  20   2.0000      -7.867598      -214.0882
  21   2.0000      -7.811679      -212.5666
  22   2.0000      -7.810002      -212.5210
  23   2.0000      -6.593823      -179.4270
  24   2.0000      -6.587197      -179.2467
  25   2.0000      -5.823168      -158.4565
  26   2.0000      -5.819875      -158.3668
  27   2.0000      -5.814413      -158.2182
  28   2.0000      -5.813530      -158.1942
  29   2.0000      -5.811474      -158.1382
  30   2.0000      -5.804763      -157.9556
  31   2.0000      -5.759285      -156.7181
  32   2.0000      -5.757776      -156.6771
  33   2.0000      -5.752024      -156.5205
  34   2.0000      -5.751692      -156.5115
  35   2.0000      -5.750213      -156.4713
  36   2.0000      -5.749942      -156.4639
  37   2.0000      -4.739543      -128.9695
  38   2.0000      -4.738895      -128.9519
  39   2.0000      -4.737239      -128.9068
  40   2.0000      -4.732388      -128.7748
  41   2.0000      -4.732314      -128.7728
  42   2.0000      -4.731037      -128.7381
  43   2.0000      -1.051771       -28.6202
  44   2.0000      -1.046027       -28.4638
  45   2.0000      -1.012719       -27.5575
  46   2.0000      -1.002763       -27.2866
  47   2.0000      -0.800674       -21.7875
  48   2.0000      -0.757873       -20.6228
  49   2.0000      -0.750181       -20.4135
  50   2.0000      -0.736934       -20.0530
  51   2.0000      -0.723948       -19.6996
  52   2.0000      -0.712661       -19.3925
  53   2.0000      -0.685439       -18.6517
  54   2.0000      -0.663400       -18.0520
  55   2.0000      -0.631659       -17.1883
  56   2.0000      -0.624604       -16.9963
  57   2.0000      -0.612083       -16.6556
  58   2.0000      -0.594959       -16.1897
  59   2.0000      -0.588541       -16.0150
  60   2.0000      -0.525556       -14.3011
  61   2.0000      -0.515695       -14.0328
  62   2.0000      -0.493013       -13.4156
  63   2.0000      -0.483137       -13.1468
  64   2.0000      -0.468529       -12.7493
  65   2.0000      -0.466219       -12.6865
  66   2.0000      -0.461969       -12.5708
  67   2.0000      -0.452010       -12.2998
  68   2.0000      -0.449689       -12.2366
  69   2.0000      -0.437623       -11.9083
  70   2.0000      -0.431102       -11.7309
  71   2.0000      -0.418247       -11.3811
  72   2.0000      -0.408148       -11.1063
  73   2.0000      -0.399819       -10.8796
  74   2.0000      -0.397094       -10.8055
  75   2.0000      -0.385964       -10.5026
  76   2.0000      -0.384134       -10.4528
  77   2.0000      -0.374639       -10.1944
  78   2.0000      -0.369823       -10.0634
  79   2.0000      -0.363542        -9.8925
  80   2.0000      -0.361832        -9.8460
  81   2.0000      -0.359573        -9.7845
  82   2.0000      -0.353458        -9.6181
  83   2.0000      -0.350379        -9.5343
  84   2.0000      -0.347309        -9.4507
  85   2.0000      -0.329009        -8.9528
  86   2.0000      -0.319239        -8.6869
  87   2.0000      -0.311921        -8.4878
  88   2.0000      -0.309395        -8.4191
  89   2.0000      -0.308311        -8.3896
  90   2.0000      -0.303225        -8.2512
  91   2.0000      -0.291124        -7.9219
  92   2.0000      -0.278694        -7.5837
  93   2.0000      -0.276331        -7.5193
  94   2.0000      -0.267546        -7.2803
  95   2.0000      -0.249011        -6.7759
  96   2.0000      -0.233508        -6.3541
  97   2.0000      -0.224595        -6.1115
  98   2.0000      -0.215738        -5.8705
  99   2.0000      -0.210541        -5.7291
 100   2.0000      -0.201980        -5.4962
 101   0.0000      -0.046738        -1.2718
 102   0.0000      -0.034926        -0.9504
 103   0.0000      -0.011244        -0.3060
 104   0.0000       0.010294         0.2801
 105   0.0000       0.013411         0.3649

MULLIKEN ATOMIC CHARGES
-----------------------
   0 C :   -0.448199
   1 C :   -0.146547
   2 O :   -0.297451
   3 P :    0.672482
   4 S :   -0.444124
   5 O :   -0.288087
   6 C :   -0.131964
   7 C :   -0.463124
   8 S :   -0.152908
   9 C :   -0.231729
  10 S :   -0.160222
  11 P :    0.645813
  12 S :   -0.422842
  13 O :   -0.270537
  14 C :   -0.135441
  15 C :   -0.440660
  16 O :   -0.273583
  17 C :   -0.164617
  18 C :   -0.452516
  19 H :    0.163289
  20 H :    0.161833
  21 H :    0.148089
  22 H :    0.175067
  23 H :    0.149533
  24 H :    0.169912
  25 H :    0.170930
  26 H :    0.154608
  27 H :    0.148244
  28 H :    0.149685
  29 H :    0.188968
  30 H :    0.229246
  31 H :    0.162736
  32 H :    0.153280
  33 H :    0.150426
  34 H :    0.162351
  35 H :    0.159437
  36 H :    0.148230
  37 H :    0.176976
  38 H :    0.152392
  39 H :    0.149118
  40 H :    0.181908
Sum of atomic charges:    0.0000000

LOEWDIN ATOMIC CHARGES
----------------------
   0 C :   -0.406189
   1 C :    0.022376
   2 O :   -0.653690
   3 P :    0.377972
   4 S :   -0.116498
   5 O :   -0.651730
   6 C :    0.014679
   7 C :   -0.385789
   8 S :    0.142239
   9 C :   -0.419476
  10 S :    0.135285
  11 P :    0.381253
  12 S :   -0.088001
  13 O :   -0.670706
  14 C :    0.017216
  15 C :   -0.399880
  16 O :   -0.670419
  17 C :    0.021440
  18 C :   -0.408219
  19 H :    0.162345
  20 H :    0.160051
  21 H :    0.158656
  22 H :    0.179586
  23 H :    0.180388
  24 H :    0.181551
  25 H :    0.183480
  26 H :    0.160330
  27 H :    0.160268
  28 H :    0.158526
  29 H :    0.176403
  30 H :    0.201722
  31 H :    0.176919
  32 H :    0.183094
  33 H :    0.160253
  34 H :    0.164600
  35 H :    0.163389
  36 H :    0.179412
  37 H :    0.181707
  38 H :    0.158542
  39 H :    0.160055
  40 H :    0.166862

  Mayer bond orders larger than 0.100000
B(  0-C ,  1-C ) :   0.9090 B(  0-C , 19-H ) :   0.9670 B(  0-C , 20-H ) :   0.9676
B(  0-C , 21-H ) :   0.9606 B(  1-C ,  2-O ) :   0.8203 B(  1-C , 22-H ) :   0.9721
B(  1-C , 23-H ) :   0.9589 B(  2-O ,  3-P ) :   1.1279 B(  3-P ,  4-S ) :   1.7679
B(  3-P ,  5-O ) :   1.1515 B(  3-P ,  8-S ) :   1.0652 B(  5-O ,  6-C ) :   0.7811
B(  6-C ,  7-C ) :   0.9438 B(  6-C , 24-H ) :   0.9471 B(  6-C , 25-H ) :   0.9328
B(  7-C , 26-H ) :   0.9751 B(  7-C , 27-H ) :   0.9651 B(  7-C , 28-H ) :   0.9743
B(  8-S ,  9-C ) :   0.8852 B(  9-C , 10-S ) :   0.9206 B(  9-C , 29-H ) :   0.9116
B(  9-C , 30-H ) :   0.9000 B( 10-S , 11-P ) :   1.0000 B( 11-P , 12-S ) :   1.8213
B( 11-P , 13-O ) :   1.1458 B( 11-P , 16-O ) :   1.0535 B( 13-O , 14-C ) :   0.8156
B( 14-C , 15-C ) :   0.9200 B( 14-C , 31-H ) :   0.9606 B( 14-C , 32-H ) :   0.9562
B( 15-C , 33-H ) :   0.9575 B( 15-C , 34-H ) :   0.9697 B( 15-C , 35-H ) :   0.9618
B( 16-O , 17-C ) :   0.8123 B( 17-C , 18-C ) :   0.9104 B( 17-C , 36-H ) :   0.9614
B( 17-C , 37-H ) :   0.9673 B( 18-C , 38-H ) :   0.9690 B( 18-C , 39-H ) :   0.9571
B( 18-C , 40-H ) :   0.9627

Dispersion correction           -0.021921491
FINAL SINGLE POINT ENERGY     -2932.458436415935

DIPOLE MOMENT
-------------

Method             : SCF
Type of density    : Electron Density
Multiplicity       :   1
Irrep              :   0
Energy             : -2932.4830054166886839 Eh
Relativity type    :
Basis              : AO
                                X                 Y                 Z
Electronic contribution:      4.989351861       4.041367250      -4.741019404
Nuclear contribution   :     -5.712906015      -5.410379061       5.341467666
                        -----------------------------------------
Total Dipole Moment    :     -0.723554154      -1.369011811       0.600448262
                        -----------------------------------------
Magnitude (a.u.)       :      1.660801634
Magnitude (Debye)      :      4.221422271

Rotational constants in cm-1:             0.011996             0.005110             0.004853
Rotational constants in MHz :           359.618367           153.203078           145.501430

                             ****ORCA TERMINATED NORMALLY****
TOTAL RUN TIME: 0 days 0 hours 1 minutes 20 seconds 265 msec
