                         Program Version 6.0.0  -   RELEASE  -
|  1> ! r2scan-3c def2/J RI DEFGRID2 scfconv6 printgap
|  2> %output
|  3>     printlevel normal
|  4> end
|  5> %cpcm
|  6>     smd true
|  7>     smdsolvent "water"
|  8> end
|  9> * xyz 0 1
| 10> C 3.99165735 -1.9686553042 -1.6758737334
| 11> C 4.6040824211 -0.6783981671 -1.1679938569
| 12> O 3.8714287311 -0.1320555751 -0.0573834921
| 13> P 2.3963100331 0.4163379367 -0.2140105772
| 14> S 2.0018613566 1.3135880193 -1.9161068103
| 15> O 2.4441744991 1.3065676499 1.0935492904
| 16> C 1.3573591309 2.1436916224 1.522226642
| 17> C 1.8658221919 3.0041199956 2.660342349
| 18> S 1.1400132509 -1.2123164394 0.3169488136
| 19> C 0.0910784347 -1.3556380456 -1.1779468581
| 20> S -1.6082257507 -1.7755785721 -0.7552047491
| 21> P -2.1139935699 0.0230610736 0.2636127504
| 22> S -1.4223408128 1.6852801988 -0.5119030843
| 23> O -1.6243279895 -0.1467047288 1.7540532009
| 24> C -1.6560630083 -1.3612785859 2.5463392604
| 25> C -3.0266362084 -1.9985213931 2.5999784901
| 26> O -3.6947388815 -0.0337495654 0.4004470592
| 27> C -4.5812974072 0.4832357398 -0.6063008959
| 28> C -4.5091298872 -0.305004223 -1.8982403999
| 29> H 3.8485037837 -2.6676955656 -0.8555835123
| 30> H 3.0285752542 -1.7585190951 -2.1404622604
| 31> H 4.648968739 -2.4113256312 -2.41735796
| 32> H 4.6373717649 0.0709140316 -1.9652139345
| 33> H 5.6051538935 -0.8367423028 -0.7648828211
| 34> H 1.0188080395 2.7518354085 0.6761840377
| 35> H 0.5247331374 1.5089424552 1.8441435374
| 36> H 2.6887898319 3.623912709 2.3161870776
| 37> H 1.0593843152 3.6382387206 3.0135813727
| 38> H 2.2149028681 2.3721847077 3.4716865835
| 39> H 0.4570390998 -2.1724004807 -1.7950157524
| 40> H 0.1253453744 -0.4021237675 -1.7134328813
| 41> H -0.9145515996 -2.0516627459 2.1331382232
| 42> H -1.3306806935 -1.0209493952 3.5305313655
| 43> H -2.9968688086 -2.8366132589 3.2894733271
| 44> H -3.7647032742 -1.2772695156 2.9407595018
| 45> H -3.3147521987 -2.3600534208 1.6151661436
| 46> H -5.5669789747 0.4106437438 -0.1445858985
| 47> H -4.3298871506 1.5339286017 -0.7827189115
| 48> H -4.6402428184 -1.3662728461 -1.7035653135
| 49> H -5.2891083951 0.0381364249 -2.5704108172
| 50> H -3.5426267756 -0.1509219318 -2.3757019077
| 51> *
| 52>
| 53>                          ****END OF INPUT****

CARTESIAN COORDINATES (ANGSTROEM)
---------------------------------
  C      3.991657   -1.968655   -1.675874
  C      4.604082   -0.678398   -1.167994
  O      3.871429   -0.132056   -0.057383
  P      2.396310    0.416338   -0.214011
  S      2.001861    1.313588   -1.916107
  O      2.444174    1.306568    1.093549
  C      1.357359    2.143692    1.522227
  C      1.865822    3.004120    2.660342
  S      1.140013   -1.212316    0.316949
  C      0.091078   -1.355638   -1.177947
  S     -1.608226   -1.775579   -0.755205
  P     -2.113994    0.023061    0.263613
  S     -1.422341    1.685280   -0.511903
  O     -1.624328   -0.146705    1.754053
  C     -1.656063   -1.361279    2.546339
  C     -3.026636   -1.998521    2.599978
  O     -3.694739   -0.033750    0.400447
  C     -4.581297    0.483236   -0.606301
  C     -4.509130   -0.305004   -1.898240
  H      3.848504   -2.667696   -0.855584
  H      3.028575   -1.758519   -2.140462
  H      4.648969   -2.411326   -2.417358
  H      4.637372    0.070914   -1.965214
  H      5.605154   -0.836742   -0.764883
  H      1.018808    2.751835    0.676184
  H      0.524733    1.508942    1.844144
  H      2.688790    3.623913    2.316187
  H      1.059384    3.638239    3.013581
  H      2.214903    2.372185    3.471687
  H      0.457039   -2.172400   -1.795016
  H      0.125345   -0.402124   -1.713433
  H     -0.914552   -2.051663    2.133138
  H     -1.330681   -1.020949    3.530531
  H     -2.996869   -2.836613    3.289473
  H     -3.764703   -1.277270    2.940760
  H     -3.314752   -2.360053    1.615166
  H     -5.566979    0.410644   -0.144586
  H     -4.329887    1.533929   -0.782719
  H     -4.640243   -1.366273   -1.703565
  H     -5.289108    0.038136   -2.570411
  H     -3.542627   -0.150922   -2.375702

 Total Charge           Charge          ....    0
 Multiplicity           Mult            ....    1
 Number of Electrons    NEL             ....  202
 Basis Dimension        Dim             ....  539

ORBITAL ENERGIES
----------------

  NO   OCC          E(Eh)            E(eV)
   0   2.0000     -88.581956     -2410.4376
   1   2.0000     -88.577113     -2410.3058
   2   2.0000     -88.528466     -2408.9820
   3   2.0000     -88.522559     -2408.8213
   4   2.0000     -76.918895     -2093.0695
   5   2.0000     -76.918142     -2093.0490
   6   2.0000     -18.994616      -516.8698
   7   2.0000     -18.993817      -516.8480
   8   2.0000     -18.993118      -516.8290
   9   2.0000     -18.991894      -516.7957
  10   2.0000     -10.104168      -274.9484
  11   2.0000     -10.092353      -274.6269
  12   2.0000     -10.089782      -274.5569
  13   2.0000     -10.089508      -274.5495
  14   2.0000     -10.086244      -274.4606
  15   2.0000     -10.020289      -272.6659
  16   2.0000     -10.018559      -272.6188
  17   2.0000     -10.018548      -272.6185
  18   2.0000     -10.017930      -272.6017
  19   2.0000      -7.876278      -214.3244
  20   2.0000      -7.871379      -214.1911
  21   2.0000      -7.823384      -212.8851
  22   2.0000      -7.817702      -212.7305
  23   2.0000      -6.597171      -179.5181
  24   2.0000      -6.596761      -179.5070
  25   2.0000      -5.823232      -158.4582
  26   2.0000      -5.819933      -158.3684
  27   2.0000      -5.818220      -158.3218
  28   2.0000      -5.815272      -158.2416
  29   2.0000      -5.813509      -158.1936
  30   2.0000      -5.808521      -158.0579
  31   2.0000      -5.770911      -157.0345
  32   2.0000      -5.765360      -156.8834
  33   2.0000      -5.763754      -156.8397
  34   2.0000      -5.763393      -156.8299
  35   2.0000      -5.758008      -156.6834
  36   2.0000      -5.757593      -156.6721
  37   2.0000      -4.742849      -129.0595
  38   2.0000      -4.742213      -129.0422
  39   2.0000      -4.742003      -129.0365
  40   2.0000      -4.741833      -129.0318
  41   2.0000      -4.740697      -129.0009
  42   2.0000      -4.740606      -128.9985
  43   2.0000      -1.055508       -28.7218
  44   2.0000      -1.051815       -28.6214
  45   2.0000      -1.012178       -27.5428
  46   2.0000      -1.011535       -27.5253
  47   2.0000      -0.800608       -21.7856
  48   2.0000      -0.756059       -20.5734
  49   2.0000      -0.746586       -20.3156
  50   2.0000      -0.726385       -19.7659
  51   2.0000      -0.720098       -19.5949
  52   2.0000      -0.713244       -19.4084
  53   2.0000      -0.688789       -18.7429
  54   2.0000      -0.669904       -18.2290
  55   2.0000      -0.631431       -17.1821
  56   2.0000      -0.622700       -16.9445
  57   2.0000      -0.604083       -16.4379
  58   2.0000      -0.592274       -16.1166
  59   2.0000      -0.588332       -16.0093
  60   2.0000      -0.527432       -14.3522
  61   2.0000      -0.511894       -13.9294
  62   2.0000      -0.487711       -13.2713
  63   2.0000      -0.485580       -13.2133
  64   2.0000      -0.469138       -12.7659
  65   2.0000      -0.464959       -12.6522
  66   2.0000      -0.457661       -12.4536
  67   2.0000      -0.453362       -12.3366
  68   2.0000      -0.443959       -12.0807
  69   2.0000      -0.437450       -11.9036
  70   2.0000      -0.425280       -11.5724
  71   2.0000      -0.410287       -11.1645
  72   2.0000      -0.408549       -11.1172
  73   2.0000      -0.401216       -10.9176
  74   2.0000      -0.392654       -10.6847
  75   2.0000      -0.389317       -10.5938
  76   2.0000      -0.380924       -10.3655
  77   2.0000      -0.370029       -10.0690
  78   2.0000      -0.359883        -9.7929
  79   2.0000      -0.358729        -9.7615
  80   2.0000      -0.355935        -9.6855
  81   2.0000      -0.353222        -9.6116
  82   2.0000      -0.348399        -9.4804
  83   2.0000      -0.346733        -9.4351
  84   2.0000      -0.344453        -9.3730
  85   2.0000      -0.323368        -8.7993
  86   2.0000      -0.320072        -8.7096
  87   2.0000      -0.315021        -8.5722
  88   2.0000      -0.305872        -8.3232
  89   2.0000      -0.304866        -8.2958
  90   2.0000      -0.302835        -8.2406
  91   2.0000      -0.289744        -7.8843
  92   2.0000      -0.280311        -7.6277
  93   2.0000      -0.276919        -7.5354
  94   2.0000      -0.274118        -7.4591
  95   2.0000      -0.250718        -6.8224
  96   2.0000      -0.241542        -6.5727
  97   2.0000      -0.234200        -6.3729
  98   2.0000      -0.223304        -6.0764
  99   2.0000      -0.218658        -5.9500
 100   2.0000      -0.212015        -5.7692
 101   0.0000      -0.049304        -1.3416
 102   0.0000      -0.040308        -1.0968
 103   0.0000      -0.013331        -0.3628
 104   0.0000       0.002705         0.0736
 105   0.0000       0.013218         0.3597

MULLIKEN ATOMIC CHARGES
-----------------------
   0 C :   -0.477352
   1 C :   -0.147293
   2 O :   -0.332963
   3 P :    0.699265
   4 S :   -0.495079
   5 O :   -0.318311
   6 C :   -0.128441
   7 C :   -0.498941
   8 S :   -0.152975
   9 C :   -0.226353
  10 S :   -0.153104
  11 P :    0.664423
  12 S :   -0.480313
  13 O :   -0.299969
  14 C :   -0.128213
  15 C :   -0.479585
  16 O :   -0.293752
  17 C :   -0.159969
  18 C :   -0.488936
  19 H :    0.170648
  20 H :    0.170216
  21 H :    0.172757
  22 H :    0.178377
  23 H :    0.174928
  24 H :    0.171453
  25 H :    0.173904
  26 H :    0.165431
  27 H :    0.168728
  28 H :    0.165522
  29 H :    0.234326
  30 H :    0.219323
  31 H :    0.169664
  32 H :    0.179170
  33 H :    0.175805
  34 H :    0.171838
  35 H :    0.164294
  36 H :    0.175445
  37 H :    0.178723
  38 H :    0.169801
  39 H :    0.172908
  40 H :    0.174601
Sum of atomic charges:    0.0000000

LOEWDIN ATOMIC CHARGES
----------------------
   0 C :   -0.406792
   1 C :    0.026321
   2 O :   -0.673218
   3 P :    0.380204
   4 S :   -0.151310
   5 O :   -0.671333
   6 C :    0.015310
   7 C :   -0.389173
   8 S :    0.149266
   9 C :   -0.411033
  10 S :    0.147737
  11 P :    0.384327
  12 S :   -0.129658
  13 O :   -0.687029
  14 C :    0.023576
  15 C :   -0.401607
  16 O :   -0.679066
  17 C :    0.025839
  18 C :   -0.411096
  19 H :    0.164660
  20 H :    0.161478
  21 H :    0.168035
  22 H :    0.180869
  23 H :    0.190967
  24 H :    0.181415
  25 H :    0.184429
  26 H :    0.162863
  27 H :    0.168607
  28 H :    0.163290
  29 H :    0.194022
  30 H :    0.198619
  31 H :    0.180205
  32 H :    0.193643
  33 H :    0.170113
  34 H :    0.166213
  35 H :    0.163037
  36 H :    0.190922
  37 H :    0.181547
  38 H :    0.163539
  39 H :    0.168523
  40 H :    0.161739

  Mayer bond orders larger than 0.100000
B(  0-C ,  1-C ) :   0.9012 B(  0-C , 19-H ) :   0.9651 B(  0-C , 20-H ) :   0.9639
B(  0-C , 21-H ) :   0.9550 B(  1-C ,  2-O ) :   0.8078 B(  1-C , 22-H ) :   0.9677
B(  1-C , 23-H ) :   0.9486 B(  2-O ,  3-P ) :   1.1296 B(  3-P ,  4-S ) :   1.7336
B(  3-P ,  5-O ) :   1.1439 B(  3-P ,  8-S ) :   1.0903 B(  5-O ,  6-C ) :   0.7801
B(  6-C ,  7-C ) :   0.9369 B(  6-C , 24-H ) :   0.9446 B(  6-C , 25-H ) :   0.9296
B(  7-C , 26-H ) :   0.9727 B(  7-C , 27-H ) :   0.9577 B(  7-C , 28-H ) :   0.9706
B(  8-S ,  9-C ) :   0.8790 B(  9-C , 10-S ) :   0.9148 B(  9-C , 29-H ) :   0.8958
B(  9-C , 30-H ) :   0.9048 B( 10-S , 11-P ) :   1.0182 B( 11-P , 12-S ) :   1.7922
B( 11-P , 13-O ) :   1.1513 B( 11-P , 16-O ) :   1.0609 B( 13-O , 14-C ) :   0.8045
B( 14-C , 15-C ) :   0.9105 B( 14-C , 31-H ) :   0.9539 B( 14-C , 32-H ) :   0.9457
B( 15-C , 33-H ) :   0.9510 B( 15-C , 34-H ) :   0.9689 B( 15-C , 35-H ) :   0.9597
B( 16-O , 17-C ) :   0.8017 B( 17-C , 18-C ) :   0.8999 B( 17-C , 36-H ) :   0.9511
B( 17-C , 37-H ) :   0.9659 B( 18-C , 38-H ) :   0.9657 B( 18-C , 39-H ) :   0.9521
B( 18-C , 40-H ) :   0.9647

Dispersion correction           -0.021921491
FINAL SINGLE POINT ENERGY     -2932.467148773049

DIPOLE MOMENT
-------------

Method             : SCF
Type of density    : Electron Density
Multiplicity       :   1
Irrep              :   0
Energy             : -2932.4917177738029750 Eh
Relativity type    :
Basis              : AO
                                X                 Y                 Z
Electronic contribution:      4.717099867       3.224858142      -4.631114324
Nuclear contribution   :     -5.712906015      -5.410379061       5.341467666
                        -----------------------------------------
Total Dipole Moment    :     -0.995806147      -2.185520919       0.710353342
                        -----------------------------------------
Magnitude (a.u.)       :      2.504542562
Magnitude (Debye)      :      6.366041274

Rotational constants in cm-1:             0.011996             0.005110             0.004853
Rotational constants in MHz :           359.618367           153.203078           145.501430

                             ****ORCA TERMINATED NORMALLY****
TOTAL RUN TIME: 0 days 0 hours 1 minutes 42 seconds 408 msec
