                         Program Version 6.0.1  -  RELEASE   -
|  1> ! pbe def2-sv(p) def2/J RI DEFGRID1 loosescf d4 GCP(DFT/SV(P)) printgap
|  2> %output
|  3>     printlevel normal
|  4> end
|  5> * xyz 0 1
|  6> C 2.9159061213 -4.0458796964 -0.1669122775
|  7> C 2.7439104255 -2.6071746517 0.2761254889
|  8> O 2.2836592052 -1.8467772938 -0.8583542227
|  9> C 2.1209494128 -0.5538883346 -0.7176660257
| 10> O 2.323980943 0.064044381 0.3101644436
| 11> C 1.6592202934 0.1173412521 -1.9970427824
| 12> C 0.4187084872 0.972425946 -1.7221479443
| 13> H 0.261844019 1.6762301434 -2.5424822656
| 14> C 0.5605888604 1.7388189037 -0.421209464
| 15> O -0.1774857174 1.5298171368 0.5287876599
| 16> O 1.4886229729 2.6432801209 -0.472042518
| 17> C 1.7764237424 3.4053459472 0.7220732983
| 18> C 0.7696941169 4.525927973 0.919383382
| 19> S -1.1041735929 -0.0298220795 -1.6395871675
| 20> P -1.4956705983 -0.4171627967 0.4072343291
| 21> S -0.324592717 -1.1382212455 1.8025408314
| 22> O -2.5517018385 0.6252311854 1.012419751
| 23> C -3.6046400435 1.1854564781 0.2116423802
| 24> O -2.4732823696 -1.6141964693 -0.1302437161
| 25> C -3.1573314952 -2.4749313706 0.776478305
| 26> H 1.9661878444 -4.4408412147 -0.5146736354
| 27> H 3.6404735237 -4.1036347823 -0.9736287766
| 28> H 3.262443528 -4.6375894563 0.6734843738
| 29> H 3.6839054991 -2.1672582972 0.6233864266
| 30> H 2.0035306108 -2.5083431608 1.0775510358
| 31> H 1.4416027706 -0.6340898939 -2.7540607857
| 32> H 2.4673970787 0.768807632 -2.3360583142
| 33> H 1.7784585226 2.7168089025 1.5716020523
| 34> H 2.7797415079 3.7923600036 0.5465068392
| 35> H 1.0694288236 5.1240763044 1.7734079271
| 36> H 0.7320044245 5.1562844503 0.0353058923
| 37> H -0.2190844862 4.1151498248 1.1109583689
| 38> H -3.2352610356 2.0724843356 -0.3022299184
| 39> H -4.3934354317 1.4520279021 0.9112748272
| 40> H -3.9630141618 0.457236964 -0.5176157501
| 41> H -3.9371780128 -1.9289304738 1.3094850156
| 42> H -2.4523885274 -2.8933303898 1.4980516683
| 43> H -3.5894658924 -3.2625941616 0.1643128007
| 44> *
| 45>
| 46>                          ****END OF INPUT****

CARTESIAN COORDINATES (ANGSTROEM)
---------------------------------
  C      2.915906   -4.045880   -0.166912
  C      2.743910   -2.607175    0.276125
  O      2.283659   -1.846777   -0.858354
  C      2.120949   -0.553888   -0.717666
  O      2.323981    0.064044    0.310164
  C      1.659220    0.117341   -1.997043
  C      0.418708    0.972426   -1.722148
  H      0.261844    1.676230   -2.542482
  C      0.560589    1.738819   -0.421209
  O     -0.177486    1.529817    0.528788
  O      1.488623    2.643280   -0.472043
  C      1.776424    3.405346    0.722073
  C      0.769694    4.525928    0.919383
  S     -1.104174   -0.029822   -1.639587
  P     -1.495671   -0.417163    0.407234
  S     -0.324593   -1.138221    1.802541
  O     -2.551702    0.625231    1.012420
  C     -3.604640    1.185456    0.211642
  O     -2.473282   -1.614196   -0.130244
  C     -3.157331   -2.474931    0.776478
  H      1.966188   -4.440841   -0.514674
  H      3.640474   -4.103635   -0.973629
  H      3.262444   -4.637589    0.673484
  H      3.683905   -2.167258    0.623386
  H      2.003531   -2.508343    1.077551
  H      1.441603   -0.634090   -2.754061
  H      2.467397    0.768808   -2.336058
  H      1.778459    2.716809    1.571602
  H      2.779742    3.792360    0.546507
  H      1.069429    5.124076    1.773408
  H      0.732004    5.156284    0.035306
  H     -0.219084    4.115150    1.110958
  H     -3.235261    2.072484   -0.302230
  H     -4.393435    1.452028    0.911275
  H     -3.963014    0.457237   -0.517616
  H     -3.937178   -1.928930    1.309485
  H     -2.452389   -2.893330    1.498052
  H     -3.589466   -3.262594    0.164313

 Total Charge           Charge          ....    0
 Multiplicity           Mult            ....    1
 Number of Electrons    NEL             ....  174
 Basis Dimension        Dim             ....  316

ORBITAL ENERGIES
----------------

  NO   OCC          E(Eh)            E(eV)
   0   2.0000     -88.033595     -2395.5159
   1   2.0000     -87.958743     -2393.4791
   2   2.0000     -76.412057     -2079.2778
   3   2.0000     -18.818719      -512.0834
   4   2.0000     -18.802570      -511.6440
   5   2.0000     -18.771832      -510.8075
   6   2.0000     -18.762893      -510.5643
   7   2.0000     -18.759741      -510.4785
   8   2.0000     -18.737371      -509.8698
   9   2.0000     -10.029931      -272.9283
  10   2.0000     -10.010032      -272.3868
  11   2.0000      -9.954128      -270.8656
  12   2.0000      -9.953471      -270.8477
  13   2.0000      -9.937332      -270.4085
  14   2.0000      -9.937306      -270.4079
  15   2.0000      -9.924155      -270.0500
  16   2.0000      -9.916257      -269.8351
  17   2.0000      -9.890400      -269.1315
  18   2.0000      -9.881614      -268.8924
  19   2.0000      -7.678552      -208.9440
  20   2.0000      -7.604083      -206.9176
  21   2.0000      -6.407101      -174.3461
  22   2.0000      -5.706892      -155.2924
  23   2.0000      -5.702786      -155.1807
  24   2.0000      -5.695312      -154.9773
  25   2.0000      -5.633479      -153.2947
  26   2.0000      -5.624888      -153.0610
  27   2.0000      -5.623443      -153.0217
  28   2.0000      -4.630370      -125.9988
  29   2.0000      -4.629158      -125.9658
  30   2.0000      -4.627290      -125.9150
  31   2.0000      -1.030901       -28.0522
  32   2.0000      -1.009471       -27.4691
  33   2.0000      -0.960731       -26.1428
  34   2.0000      -0.936579       -25.4856
  35   2.0000      -0.915092       -24.9009
  36   2.0000      -0.914443       -24.8833
  37   2.0000      -0.767087       -20.8735
  38   2.0000      -0.712354       -19.3841
  39   2.0000      -0.706583       -19.2271
  40   2.0000      -0.684702       -18.6317
  41   2.0000      -0.653516       -17.7831
  42   2.0000      -0.628543       -17.1035
  43   2.0000      -0.616094       -16.7648
  44   2.0000      -0.600289       -16.3347
  45   2.0000      -0.587565       -15.9885
  46   2.0000      -0.560042       -15.2395
  47   2.0000      -0.511700       -13.9241
  48   2.0000      -0.505125       -13.7451
  49   2.0000      -0.499077       -13.5806
  50   2.0000      -0.486068       -13.2266
  51   2.0000      -0.460957       -12.5433
  52   2.0000      -0.458592       -12.4789
  53   2.0000      -0.447994       -12.1905
  54   2.0000      -0.434868       -11.8334
  55   2.0000      -0.427911       -11.6440
  56   2.0000      -0.421500       -11.4696
  57   2.0000      -0.414786       -11.2869
  58   2.0000      -0.411255       -11.1908
  59   2.0000      -0.407616       -11.0918
  60   2.0000      -0.401252       -10.9186
  61   2.0000      -0.395448       -10.7607
  62   2.0000      -0.384193       -10.4544
  63   2.0000      -0.381234       -10.3739
  64   2.0000      -0.363606        -9.8942
  65   2.0000      -0.362558        -9.8657
  66   2.0000      -0.357192        -9.7197
  67   2.0000      -0.351021        -9.5518
  68   2.0000      -0.345323        -9.3967
  69   2.0000      -0.343113        -9.3366
  70   2.0000      -0.333937        -9.0869
  71   2.0000      -0.327540        -8.9128
  72   2.0000      -0.312079        -8.4921
  73   2.0000      -0.307033        -8.3548
  74   2.0000      -0.306575        -8.3423
  75   2.0000      -0.296648        -8.0722
  76   2.0000      -0.291933        -7.9439
  77   2.0000      -0.278013        -7.5651
  78   2.0000      -0.266561        -7.2535
  79   2.0000      -0.257325        -7.0022
  80   2.0000      -0.253150        -6.8886
  81   2.0000      -0.249218        -6.7816
  82   2.0000      -0.236533        -6.4364
  83   2.0000      -0.223677        -6.0866
  84   2.0000      -0.214422        -5.8347
  85   2.0000      -0.179765        -4.8916
  86   2.0000      -0.170587        -4.6419
  87   0.0000      -0.041546        -1.1305
  88   0.0000      -0.033902        -0.9225
  89   0.0000      -0.025284        -0.6880
  90   0.0000       0.007460         0.2030
  91   0.0000       0.036025         0.9803

MULLIKEN ATOMIC CHARGES
-----------------------
   0 C :   -0.273624
   1 C :   -0.041211
   2 O :   -0.215534
   3 C :    0.096182
   4 O :   -0.203677
   5 C :   -0.024884
   6 C :   -0.300129
   7 H :    0.144654
   8 C :    0.232703
   9 O :   -0.201880
  10 O :   -0.216572
  11 C :   -0.004896
  12 C :   -0.315328
  13 S :   -0.082814
  14 P :    0.646029
  15 S :   -0.325832
  16 O :   -0.382469
  17 C :   -0.102214
  18 O :   -0.421212
  19 C :   -0.096806
  20 H :    0.120220
  21 H :    0.108384
  22 H :    0.110633
  23 H :    0.098814
  24 H :    0.134419
  25 H :    0.117364
  26 H :    0.123763
  27 H :    0.132932
  28 H :    0.105545
  29 H :    0.118373
  30 H :    0.111225
  31 H :    0.136349
  32 H :    0.108452
  33 H :    0.123020
  34 H :    0.115789
  35 H :    0.098357
  36 H :    0.112339
  37 H :    0.113537
Sum of atomic charges:    0.0000000

LOEWDIN ATOMIC CHARGES
----------------------
   0 C :   -0.350291
   1 C :   -0.111490
   2 O :   -0.043762
   3 C :    0.026827
   4 O :   -0.155537
   5 C :   -0.246569
   6 C :   -0.262433
   7 H :    0.146407
   8 C :    0.028277
   9 O :   -0.143854
  10 O :   -0.031712
  11 C :   -0.101271
  12 C :   -0.358582
  13 S :    0.113787
  14 P :    0.585567
  15 S :   -0.312358
  16 O :   -0.256557
  17 C :   -0.214821
  18 O :   -0.295779
  19 C :   -0.220684
  20 H :    0.129328
  21 H :    0.122910
  22 H :    0.130758
  23 H :    0.114220
  24 H :    0.118526
  25 H :    0.136896
  26 H :    0.147492
  27 H :    0.132996
  28 H :    0.120567
  29 H :    0.133926
  30 H :    0.123645
  31 H :    0.133032
  32 H :    0.108396
  33 H :    0.120732
  34 H :    0.107310
  35 H :    0.103171
  36 H :    0.105173
  37 H :    0.115755

  Mayer bond orders larger than 0.100000
B(  0-C ,  1-C ) :   1.1552 B(  0-C , 20-H ) :   0.9488 B(  0-C , 21-H ) :   0.9510
B(  0-C , 22-H ) :   0.9442 B(  1-C ,  2-O ) :   0.8932 B(  1-C , 23-H ) :   0.9295
B(  1-C , 24-H ) :   0.9113 B(  2-O ,  3-C ) :   1.2738 B(  2-O ,  4-O ) :   0.1019
B(  3-C ,  4-O ) :   1.9614 B(  3-C ,  5-C ) :   1.0049 B(  4-O ,  8-C ) :   0.1126
B(  5-C ,  6-C ) :   1.0200 B(  5-C , 25-H ) :   0.9044 B(  5-C , 26-H ) :   0.8763
B(  6-C ,  7-H ) :   0.8777 B(  6-C ,  8-C ) :   0.9110 B(  6-C , 13-S ) :   1.0404
B(  8-C ,  9-O ) :   1.8589 B(  8-C , 10-O ) :   1.2821 B(  9-O , 14-P ) :   0.1847
B( 10-O , 11-C ) :   0.8945 B( 11-C , 12-C ) :   1.1720 B( 11-C , 27-H ) :   0.9171
B( 11-C , 28-H ) :   0.9385 B( 12-C , 29-H ) :   0.9434 B( 12-C , 30-H ) :   0.9470
B( 12-C , 31-H ) :   0.9430 B( 13-S , 14-P ) :   0.9280 B( 13-S , 15-S ) :   0.1062
B( 14-P , 15-S ) :   1.6093 B( 14-P , 16-O ) :   1.0650 B( 14-P , 18-O ) :   0.9898
B( 16-O , 17-C ) :   0.9384 B( 17-C , 32-H ) :   0.9515 B( 17-C , 33-H ) :   0.9577
B( 17-C , 34-H ) :   0.9379 B( 18-O , 19-C ) :   0.9513 B( 19-C , 35-H ) :   0.9499
B( 19-C , 36-H ) :   0.9316 B( 19-C , 37-H ) :   0.9592

Dispersion correction           -0.053361906
FINAL SINGLE POINT ENERGY     -1979.003515282790

DIPOLE MOMENT
-------------

Method             : SCF
Type of density    : Electron Density
Multiplicity       :   1
Irrep              :   0
Energy             : -1979.1332836912688435 Eh
Relativity type    :
Basis              : AO
                                X                 Y                 Z
Electronic contribution:     -4.256010915      -0.264799719      -1.943461924
Nuclear contribution   :      4.484319123       1.135488961       0.908028863
                        -----------------------------------------
Total Dipole Moment    :      0.228308208       0.870689241      -1.035433061
                        -----------------------------------------
Magnitude (a.u.)       :      1.371986158
Magnitude (Debye)      :      3.487311672

Rotational constants in cm-1:             0.010253             0.010042             0.006496
Rotational constants in MHz :           307.385862           301.050748           194.749981

                             ****ORCA TERMINATED NORMALLY****
TOTAL RUN TIME: 0 days 0 hours 0 minutes 42 seconds 489 msec
