                         Program Version 6.0.0  -   RELEASE  -
|  1> ! pbe def2-sv(p) def2/J RI DEFGRID1 loosescf d4 GCP(DFT/SV(P)) printgap
|  2> %output
|  3>     printlevel normal
|  4> end
|  5> * xyz 0 1
|  6> C 4.2492685137 0.2499282572 -2.2366674447
|  7> C 4.5750553373 -0.5113458373 -0.9684439994
|  8> O 3.722824304 -0.1550752789 0.134849976
|  9> P 2.1341522593 -0.1220285022 0.1061828906
| 10> S 1.2903047344 1.4652662618 -0.7014584907
| 11> O 1.7959098943 -0.29734344 1.6464942265
| 12> C 1.6561660645 0.8301713902 2.5310901539
| 13> C 2.9801633313 1.5270882104 2.7617560141
| 14> S 1.6299801841 -2.0163891942 -0.656147487
| 15> C -0.0972871883 -1.7129230218 -1.1021107344
| 16> S -1.1516082519 -1.4015295933 0.3448170517
| 17> P -2.1240750933 0.4046257222 -0.2546638136
| 18> S -1.8872854679 0.9206474049 -2.1291256246
| 19> O -1.6691359027 1.5029620865 0.7866666448
| 20> C -2.2460614235 1.6893565761 2.1040529129
| 21> C -2.1656185381 0.4463363097 2.9654991591
| 22> O -3.6453506129 0.1870415997 0.1639769951
| 23> C -4.612015068 -0.3983941759 -0.7246962236
| 24> C -4.3032511234 -1.8467785957 -1.0439461158
| 25> H 4.9703886912 -0.0042287377 -3.006774172
| 26> H 3.2507970885 -0.0110486056 -2.5864671493
| 27> H 4.2778237797 1.3220926018 -2.0557989479
| 28> H 5.5765512326 -0.2718550129 -0.6064094763
| 29> H 4.4864197795 -1.5891031566 -1.1305642685
| 30> H 0.9270353296 1.5232887148 2.096908022
| 31> H 1.2637707867 0.3953312508 3.4516502865
| 32> H 3.3326423224 1.9606299153 1.8264389931
| 33> H 2.8504971342 2.3178039424 3.4941525596
| 34> H 3.7201064184 0.8158885302 3.1186225046
| 35> H -0.4337731097 -2.6220555405 -1.5943463517
| 36> H -0.1693580974 -0.8508028181 -1.7724954723
| 37> H -1.6553040218 2.5085288679 2.5180244669
| 38> H -3.2825240665 2.0077845039 1.9766533337
| 39> H -1.1411993218 0.0891877583 3.0302358581
| 40> H -2.525840851 0.6846212001 3.9614098506
| 41> H -2.7820989858 -0.3451410944 2.5439490848
| 42> H -5.554091561 -0.2960199087 -0.1841726113
| 43> H -4.6405713977 0.1969421371 -1.642472295
| 44> H -4.1556759133 -2.416393519 -0.1300224391
| 45> H -5.1288862808 -2.2717427488 -1.6055413974
| 46> H -3.3998346699 -1.9053993275 -1.6493340468
| 47> *
| 48>
| 49>                          ****END OF INPUT****

CARTESIAN COORDINATES (ANGSTROEM)
---------------------------------
  C      4.249269    0.249928   -2.236667
  C      4.575055   -0.511346   -0.968444
  O      3.722824   -0.155075    0.134850
  P      2.134152   -0.122029    0.106183
  S      1.290305    1.465266   -0.701458
  O      1.795910   -0.297343    1.646494
  C      1.656166    0.830171    2.531090
  C      2.980163    1.527088    2.761756
  S      1.629980   -2.016389   -0.656147
  C     -0.097287   -1.712923   -1.102111
  S     -1.151608   -1.401530    0.344817
  P     -2.124075    0.404626   -0.254664
  S     -1.887285    0.920647   -2.129126
  O     -1.669136    1.502962    0.786667
  C     -2.246061    1.689357    2.104053
  C     -2.165619    0.446336    2.965499
  O     -3.645351    0.187042    0.163977
  C     -4.612015   -0.398394   -0.724696
  C     -4.303251   -1.846779   -1.043946
  H      4.970389   -0.004229   -3.006774
  H      3.250797   -0.011049   -2.586467
  H      4.277824    1.322093   -2.055799
  H      5.576551   -0.271855   -0.606409
  H      4.486420   -1.589103   -1.130564
  H      0.927035    1.523289    2.096908
  H      1.263771    0.395331    3.451650
  H      3.332642    1.960630    1.826439
  H      2.850497    2.317804    3.494153
  H      3.720106    0.815889    3.118623
  H     -0.433773   -2.622056   -1.594346
  H     -0.169358   -0.850803   -1.772495
  H     -1.655304    2.508529    2.518024
  H     -3.282524    2.007785    1.976653
  H     -1.141199    0.089188    3.030236
  H     -2.525841    0.684621    3.961410
  H     -2.782099   -0.345141    2.543949
  H     -5.554092   -0.296020   -0.184173
  H     -4.640571    0.196942   -1.642472
  H     -4.155676   -2.416394   -0.130022
  H     -5.128886   -2.271743   -1.605541
  H     -3.399835   -1.905399   -1.649334

 Total Charge           Charge          ....    0
 Multiplicity           Mult            ....    1
 Number of Electrons    NEL             ....  202
 Basis Dimension        Dim             ....  334

ORBITAL ENERGIES
----------------

  NO   OCC          E(Eh)            E(eV)
   0   2.0000     -88.043376     -2395.7821
   1   2.0000     -88.038067     -2395.6376
   2   2.0000     -87.981632     -2394.1019
   3   2.0000     -87.977040     -2393.9770
   4   2.0000     -76.424262     -2079.6099
   5   2.0000     -76.420674     -2079.5123
   6   2.0000     -18.792233      -511.3627
   7   2.0000     -18.788106      -511.2504
   8   2.0000     -18.786793      -511.2146
   9   2.0000     -18.780422      -511.0413
  10   2.0000      -9.956312      -270.9250
  11   2.0000      -9.955369      -270.8994
  12   2.0000      -9.952321      -270.8164
  13   2.0000      -9.952276      -270.8152
  14   2.0000      -9.946340      -270.6537
  15   2.0000      -9.889302      -269.1016
  16   2.0000      -9.883775      -268.9512
  17   2.0000      -9.879958      -268.8473
  18   2.0000      -9.879006      -268.8214
  19   2.0000      -7.688864      -209.2246
  20   2.0000      -7.682535      -209.0524
  21   2.0000      -7.626736      -207.5340
  22   2.0000      -7.621559      -207.3932
  23   2.0000      -6.421360      -174.7341
  24   2.0000      -6.417914      -174.6403
  25   2.0000      -5.716742      -155.5605
  26   2.0000      -5.713157      -155.4629
  27   2.0000      -5.710440      -155.3890
  28   2.0000      -5.707158      -155.2997
  29   2.0000      -5.705991      -155.2679
  30   2.0000      -5.699446      -155.0898
  31   2.0000      -5.655778      -153.9015
  32   2.0000      -5.650529      -153.7587
  33   2.0000      -5.647219      -153.6687
  34   2.0000      -5.646867      -153.6591
  35   2.0000      -5.642287      -153.5344
  36   2.0000      -5.641658      -153.5173
  37   2.0000      -4.644398      -126.3805
  38   2.0000      -4.642759      -126.3359
  39   2.0000      -4.641807      -126.3100
  40   2.0000      -4.640415      -126.2721
  41   2.0000      -4.639871      -126.2573
  42   2.0000      -4.638292      -126.2143
  43   2.0000      -0.986104       -26.8332
  44   2.0000      -0.980703       -26.6863
  45   2.0000      -0.940817       -25.6009
  46   2.0000      -0.939291       -25.5594
  47   2.0000      -0.760219       -20.6866
  48   2.0000      -0.717294       -19.5186
  49   2.0000      -0.706942       -19.2369
  50   2.0000      -0.690865       -18.7994
  51   2.0000      -0.684695       -18.6315
  52   2.0000      -0.674772       -18.3615
  53   2.0000      -0.649152       -17.6643
  54   2.0000      -0.630878       -17.1671
  55   2.0000      -0.598413       -16.2836
  56   2.0000      -0.589551       -16.0425
  57   2.0000      -0.579061       -15.7570
  58   2.0000      -0.571132       -15.5413
  59   2.0000      -0.558447       -15.1961
  60   2.0000      -0.495157       -13.4739
  61   2.0000      -0.488524       -13.2934
  62   2.0000      -0.468378       -12.7452
  63   2.0000      -0.465392       -12.6640
  64   2.0000      -0.451698       -12.2913
  65   2.0000      -0.450461       -12.2577
  66   2.0000      -0.443840       -12.0775
  67   2.0000      -0.432027       -11.7561
  68   2.0000      -0.425400       -11.5757
  69   2.0000      -0.422389       -11.4938
  70   2.0000      -0.410726       -11.1764
  71   2.0000      -0.400953       -10.9105
  72   2.0000      -0.389194       -10.5905
  73   2.0000      -0.385580       -10.4922
  74   2.0000      -0.384616       -10.4659
  75   2.0000      -0.369538       -10.0556
  76   2.0000      -0.366063        -9.9611
  77   2.0000      -0.356226        -9.6934
  78   2.0000      -0.352179        -9.5833
  79   2.0000      -0.344847        -9.3838
  80   2.0000      -0.344073        -9.3627
  81   2.0000      -0.340994        -9.2789
  82   2.0000      -0.339119        -9.2279
  83   2.0000      -0.337688        -9.1889
  84   2.0000      -0.334265        -9.0958
  85   2.0000      -0.311725        -8.4825
  86   2.0000      -0.309885        -8.4324
  87   2.0000      -0.295009        -8.0276
  88   2.0000      -0.294535        -8.0147
  89   2.0000      -0.292759        -7.9664
  90   2.0000      -0.283376        -7.7111
  91   2.0000      -0.272754        -7.4220
  92   2.0000      -0.266327        -7.2471
  93   2.0000      -0.257783        -7.0146
  94   2.0000      -0.255188        -6.9440
  95   2.0000      -0.230899        -6.2831
  96   2.0000      -0.220117        -5.9897
  97   2.0000      -0.211858        -5.7650
  98   2.0000      -0.196189        -5.3386
  99   2.0000      -0.189793        -5.1645
 100   2.0000      -0.180688        -4.9168
 101   0.0000      -0.039316        -1.0698
 102   0.0000      -0.034389        -0.9358
 103   0.0000      -0.010603        -0.2885
 104   0.0000       0.014099         0.3837
 105   0.0000       0.015670         0.4264

MULLIKEN ATOMIC CHARGES
-----------------------
   0 C :   -0.311535
   1 C :   -0.010055
   2 O :   -0.375977
   3 P :    0.600251
   4 S :   -0.301340
   5 O :   -0.362411
   6 C :   -0.050826
   7 C :   -0.282202
   8 S :   -0.101586
   9 C :   -0.346869
  10 S :   -0.112110
  11 P :    0.621784
  12 S :   -0.290793
  13 O :   -0.361824
  14 C :    0.013443
  15 C :   -0.360401
  16 O :   -0.388347
  17 C :    0.002015
  18 C :   -0.312591
  19 H :    0.109846
  20 H :    0.128117
  21 H :    0.126659
  22 H :    0.107953
  23 H :    0.112374
  24 H :    0.128812
  25 H :    0.109925
  26 H :    0.123306
  27 H :    0.105670
  28 H :    0.112975
  29 H :    0.179292
  30 H :    0.208122
  31 H :    0.110775
  32 H :    0.109760
  33 H :    0.150197
  34 H :    0.115089
  35 H :    0.128278
  36 H :    0.101767
  37 H :    0.112987
  38 H :    0.117671
  39 H :    0.112157
  40 H :    0.119641
Sum of atomic charges:   -0.0000000

LOEWDIN ATOMIC CHARGES
----------------------
   0 C :   -0.370199
   1 C :   -0.114460
   2 O :   -0.246420
   3 P :    0.561506
   4 S :   -0.297456
   5 O :   -0.242704
   6 C :   -0.124426
   7 C :   -0.363461
   8 S :    0.082091
   9 C :   -0.480488
  10 S :    0.070905
  11 P :    0.580199
  12 S :   -0.288841
  13 O :   -0.236063
  14 C :   -0.107258
  15 C :   -0.375718
  16 O :   -0.249417
  17 C :   -0.118116
  18 C :   -0.370426
  19 H :    0.129184
  20 H :    0.121764
  21 H :    0.129897
  22 H :    0.120858
  23 H :    0.108715
  24 H :    0.111145
  25 H :    0.114895
  26 H :    0.123863
  27 H :    0.127709
  28 H :    0.125331
  29 H :    0.133869
  30 H :    0.125009
  31 H :    0.120456
  32 H :    0.115120
  33 H :    0.128572
  34 H :    0.132833
  35 H :    0.120001
  36 H :    0.117020
  37 H :    0.111844
  38 H :    0.123180
  39 H :    0.130345
  40 H :    0.119142

  Mayer bond orders larger than 0.100000
B(  0-C ,  1-C ) :   1.1634 B(  0-C , 19-H ) :   0.9347 B(  0-C , 20-H ) :   0.9328
B(  0-C , 21-H ) :   0.9423 B(  1-C ,  2-O ) :   0.9168 B(  1-C , 22-H ) :   0.9343
B(  1-C , 23-H ) :   0.9282 B(  2-O ,  3-P ) :   1.0950 B(  3-P ,  4-S ) :   1.6345
B(  3-P ,  5-O ) :   1.1197 B(  3-P ,  8-S ) :   0.9461 B(  4-S ,  8-S ) :   0.1132
B(  5-O ,  6-C ) :   0.9105 B(  6-C ,  7-C ) :   1.1606 B(  6-C , 24-H ) :   0.9055
B(  6-C , 25-H ) :   0.9241 B(  7-C , 26-H ) :   0.9329 B(  7-C , 27-H ) :   0.9392
B(  7-C , 28-H ) :   0.9449 B(  8-S ,  9-C ) :   1.0043 B(  9-C , 10-S ) :   1.0021
B(  9-C , 29-H ) :   0.9089 B(  9-C , 30-H ) :   0.8444 B( 10-S , 11-P ) :   0.9432
B( 10-S , 12-S ) :   0.1213 B( 11-P , 12-S ) :   1.6236 B( 11-P , 13-O ) :   1.1254
B( 11-P , 16-O ) :   1.0609 B( 12-S , 30-H ) :   0.1020 B( 13-O , 14-C ) :   0.8998
B( 14-C , 15-C ) :   1.1713 B( 14-C , 31-H ) :   0.9292 B( 14-C , 32-H ) :   0.9286
B( 15-C , 33-H ) :   0.9299 B( 15-C , 34-H ) :   0.9348 B( 15-C , 35-H ) :   0.9321
B( 16-O , 17-C ) :   0.9095 B( 17-C , 18-C ) :   1.1665 B( 17-C , 36-H ) :   0.9341
B( 17-C , 37-H ) :   0.9154 B( 18-C , 38-H ) :   0.9432 B( 18-C , 39-H ) :   0.9371
B( 18-C , 40-H ) :   0.9356

Dispersion correction           -0.068226586
FINAL SINGLE POINT ENERGY     -2929.511382139418

DIPOLE MOMENT
-------------

Method             : SCF
Type of density    : Electron Density
Multiplicity       :   1
Irrep              :   0
Energy             : -2929.6296210421819524 Eh
Relativity type    :
Basis              : AO
                                X                 Y                 Z
Electronic contribution:     -0.006485269      -1.587393464      -8.665915804
Nuclear contribution   :     -0.202494169       0.957447009       9.696126992
                        -----------------------------------------
Total Dipole Moment    :     -0.208979438      -0.629946455       1.030211188
                        -----------------------------------------
Magnitude (a.u.)       :      1.225495832
Magnitude (Debye)      :      3.114962856

Rotational constants in cm-1:             0.012719             0.005535             0.004874
Rotational constants in MHz :           381.300324           165.948289           146.132751

                             ****ORCA TERMINATED NORMALLY****
TOTAL RUN TIME: 0 days 0 hours 0 minutes 21 seconds 551 msec
