                         Program Version 6.0.0  -   RELEASE  -
|  1> ! pbe def2-sv(p) def2/J RI DEFGRID1 loosescf d4 GCP(DFT/SV(P)) printgap
|  2> %output
|  3>     printlevel normal
|  4> end
|  5> * xyz 0 1
|  6> C 4.3356018065 -1.3937484204 1.1282648595
|  7> C 4.3678804074 -1.2258282899 -0.3763427458
|  8> O 3.0519671472 -1.0263688994 -0.9538367545
|  9> P 2.1106434227 0.2171715698 -0.709795491
| 10> S 1.0155881531 0.597531608 -2.2912489089
| 11> O 3.1279218301 1.367161105 -0.3074824559
| 12> C 2.7781341389 2.7611519751 -0.3407747975
| 13> C 1.8603122471 3.1401631992 0.8032247129
| 14> S 1.1036236918 -0.2276566505 1.1210844391
| 15> C 0.430782491 -1.8432520389 0.6696739111
| 16> S -0.8708711412 -1.8008726628 -0.6098916249
| 17> P -2.1165359525 -0.2891118685 0.1926306557
| 18> S -1.6675020391 1.6190923983 0.0652155555
| 19> O -2.3486467838 -0.8549565728 1.6449477066
| 20> C -2.5110678069 -0.0358729566 2.8272117097
| 21> C -1.4437673096 -0.3973295264 3.8404534581
| 22> O -3.4987264683 -0.634854896 -0.5148720415
| 23> C -3.8641504076 -0.1338328949 -1.813639742
| 24> C -5.3716717063 0.0174318095 -1.8549378622
| 25> H 5.3408285912 -1.6134327039 1.4747004562
| 26> H 3.9901567106 -0.4793307937 1.6045694798
| 27> H 3.6771405466 -2.2105207051 1.4121352926
| 28> H 4.7189437254 -2.1301761745 -0.8760509295
| 29> H 4.9940587758 -0.3783339822 -0.6593430661
| 30> H 3.739775972 3.2720243223 -0.2715898181
| 31> H 2.3065878123 2.9805144441 -1.3042270012
| 32> H 1.7371225268 4.2181024779 0.822211826
| 33> H 0.8793873107 2.6852661355 0.6682404359
| 34> H 2.2763641583 2.8070277871 1.7503598318
| 35> H 0.0165426006 -2.2674691682 1.5814572114
| 36> H 1.2167696288 -2.4738250574 0.2583328868
| 37> H -2.4437716644 1.0184322506 2.5393851031
| 38> H -3.5126660315 -0.2503801881 3.203486582
| 39> H -0.4562773005 -0.1719515091 3.4421610772
| 40> H -1.6040321046 0.1840378553 4.7424379157
| 41> H -1.4995888621 -1.4549957138 4.0814424377
| 42> H -3.3616664091 0.8264355485 -1.9778990037
| 43> H -3.5116602497 -0.8496842911 -2.5613843649
| 44> H -5.6672492587 0.3589351994 -2.8415124027
| 45> H -5.8437449207 -0.9379987801 -1.6453706657
| 46> H -5.6935620827 0.7419063362 -1.1119343505
| 47> *
| 48>
| 49>                          ****END OF INPUT****

CARTESIAN COORDINATES (ANGSTROEM)
---------------------------------
  C      4.335602   -1.393748    1.128265
  C      4.367880   -1.225828   -0.376343
  O      3.051967   -1.026369   -0.953837
  P      2.110643    0.217172   -0.709795
  S      1.015588    0.597532   -2.291249
  O      3.127922    1.367161   -0.307482
  C      2.778134    2.761152   -0.340775
  C      1.860312    3.140163    0.803225
  S      1.103624   -0.227657    1.121084
  C      0.430782   -1.843252    0.669674
  S     -0.870871   -1.800873   -0.609892
  P     -2.116536   -0.289112    0.192631
  S     -1.667502    1.619092    0.065216
  O     -2.348647   -0.854957    1.644948
  C     -2.511068   -0.035873    2.827212
  C     -1.443767   -0.397330    3.840453
  O     -3.498726   -0.634855   -0.514872
  C     -3.864150   -0.133833   -1.813640
  C     -5.371672    0.017432   -1.854938
  H      5.340829   -1.613433    1.474700
  H      3.990157   -0.479331    1.604569
  H      3.677141   -2.210521    1.412135
  H      4.718944   -2.130176   -0.876051
  H      4.994059   -0.378334   -0.659343
  H      3.739776    3.272024   -0.271590
  H      2.306588    2.980514   -1.304227
  H      1.737123    4.218102    0.822212
  H      0.879387    2.685266    0.668240
  H      2.276364    2.807028    1.750360
  H      0.016543   -2.267469    1.581457
  H      1.216770   -2.473825    0.258333
  H     -2.443772    1.018432    2.539385
  H     -3.512666   -0.250380    3.203487
  H     -0.456277   -0.171952    3.442161
  H     -1.604032    0.184038    4.742438
  H     -1.499589   -1.454996    4.081442
  H     -3.361666    0.826436   -1.977899
  H     -3.511660   -0.849684   -2.561384
  H     -5.667249    0.358935   -2.841512
  H     -5.843745   -0.937999   -1.645371
  H     -5.693562    0.741906   -1.111934

 Total Charge           Charge          ....    0
 Multiplicity           Mult            ....    1
 Number of Electrons    NEL             ....  202
 Basis Dimension        Dim             ....  334

ORBITAL ENERGIES
----------------

  NO   OCC          E(Eh)            E(eV)
   0   2.0000     -88.040499     -2395.7038
   1   2.0000     -88.031512     -2395.4592
   2   2.0000     -87.977106     -2393.9788
   3   2.0000     -87.971718     -2393.8321
   4   2.0000     -76.422343     -2079.5577
   5   2.0000     -76.420194     -2079.4992
   6   2.0000     -18.794328      -511.4197
   7   2.0000     -18.790685      -511.3205
   8   2.0000     -18.790100      -511.3046
   9   2.0000     -18.782193      -511.0895
  10   2.0000      -9.958316      -270.9796
  11   2.0000      -9.958280      -270.9786
  12   2.0000      -9.950304      -270.7615
  13   2.0000      -9.950240      -270.7598
  14   2.0000      -9.943880      -270.5867
  15   2.0000      -9.890127      -269.1240
  16   2.0000      -9.887412      -269.0501
  17   2.0000      -9.880745      -268.8687
  18   2.0000      -9.878774      -268.8151
  19   2.0000      -7.684558      -209.1075
  20   2.0000      -7.677033      -208.9027
  21   2.0000      -7.621802      -207.3998
  22   2.0000      -7.616848      -207.2650
  23   2.0000      -6.419546      -174.6847
  24   2.0000      -6.417505      -174.6292
  25   2.0000      -5.712397      -155.4422
  26   2.0000      -5.709263      -155.3569
  27   2.0000      -5.705168      -155.2455
  28   2.0000      -5.701638      -155.1495
  29   2.0000      -5.701475      -155.1450
  30   2.0000      -5.693562      -154.9297
  31   2.0000      -5.650568      -153.7598
  32   2.0000      -5.646034      -153.6364
  33   2.0000      -5.642444      -153.5387
  34   2.0000      -5.642083      -153.5289
  35   2.0000      -5.637611      -153.4072
  36   2.0000      -5.636615      -153.3801
  37   2.0000      -4.642860      -126.3386
  38   2.0000      -4.641184      -126.2930
  39   2.0000      -4.640172      -126.2655
  40   2.0000      -4.639429      -126.2453
  41   2.0000      -4.639398      -126.2444
  42   2.0000      -4.637746      -126.1995
  43   2.0000      -0.987860       -26.8810
  44   2.0000      -0.981044       -26.6956
  45   2.0000      -0.944726       -25.7073
  46   2.0000      -0.940475       -25.5916
  47   2.0000      -0.759537       -20.6680
  48   2.0000      -0.718882       -19.5618
  49   2.0000      -0.709883       -19.3169
  50   2.0000      -0.689888       -18.7728
  51   2.0000      -0.684499       -18.6262
  52   2.0000      -0.667875       -18.1738
  53   2.0000      -0.645569       -17.5668
  54   2.0000      -0.630660       -17.1611
  55   2.0000      -0.593065       -16.1381
  56   2.0000      -0.587067       -15.9749
  57   2.0000      -0.580050       -15.7840
  58   2.0000      -0.562632       -15.3100
  59   2.0000      -0.559769       -15.2321
  60   2.0000      -0.500675       -13.6241
  61   2.0000      -0.495098       -13.4723
  62   2.0000      -0.476235       -12.9590
  63   2.0000      -0.471867       -12.8402
  64   2.0000      -0.461635       -12.5617
  65   2.0000      -0.445587       -12.1250
  66   2.0000      -0.436186       -11.8692
  67   2.0000      -0.429313       -11.6822
  68   2.0000      -0.425959       -11.5909
  69   2.0000      -0.418528       -11.3887
  70   2.0000      -0.407919       -11.1000
  71   2.0000      -0.397268       -10.8102
  72   2.0000      -0.388242       -10.5646
  73   2.0000      -0.380641       -10.3578
  74   2.0000      -0.375596       -10.2205
  75   2.0000      -0.372521       -10.1368
  76   2.0000      -0.364028        -9.9057
  77   2.0000      -0.358619        -9.7585
  78   2.0000      -0.353514        -9.6196
  79   2.0000      -0.352529        -9.5928
  80   2.0000      -0.349249        -9.5035
  81   2.0000      -0.345573        -9.4035
  82   2.0000      -0.338935        -9.2229
  83   2.0000      -0.338689        -9.2162
  84   2.0000      -0.326749        -8.8913
  85   2.0000      -0.321950        -8.7607
  86   2.0000      -0.308900        -8.4056
  87   2.0000      -0.297892        -8.1061
  88   2.0000      -0.293348        -7.9824
  89   2.0000      -0.289818        -7.8863
  90   2.0000      -0.281685        -7.6650
  91   2.0000      -0.273581        -7.4445
  92   2.0000      -0.268235        -7.2990
  93   2.0000      -0.255525        -6.9532
  94   2.0000      -0.252879        -6.8812
  95   2.0000      -0.243744        -6.6326
  96   2.0000      -0.216866        -5.9012
  97   2.0000      -0.202335        -5.5058
  98   2.0000      -0.186687        -5.0800
  99   2.0000      -0.180456        -4.9105
 100   2.0000      -0.176410        -4.8004
 101   0.0000      -0.048270        -1.3135
 102   0.0000      -0.024480        -0.6661
 103   0.0000      -0.009818        -0.2672
 104   0.0000      -0.001608        -0.0438
 105   0.0000       0.023327         0.6348

MULLIKEN ATOMIC CHARGES
-----------------------
   0 C :   -0.318128
   1 C :    0.007836
   2 O :   -0.375385
   3 P :    0.619929
   4 S :   -0.286196
   5 O :   -0.386283
   6 C :    0.001801
   7 C :   -0.346873
   8 S :   -0.123332
   9 C :   -0.345945
  10 S :   -0.084436
  11 P :    0.616431
  12 S :   -0.309990
  13 O :   -0.372703
  14 C :   -0.003612
  15 C :   -0.308730
  16 O :   -0.373449
  17 C :   -0.010968
  18 C :   -0.281591
  19 H :    0.112670
  20 H :    0.129684
  21 H :    0.115394
  22 H :    0.109829
  23 H :    0.111198
  24 H :    0.101154
  25 H :    0.114137
  26 H :    0.113478
  27 H :    0.163519
  28 H :    0.110437
  29 H :    0.187472
  30 H :    0.184266
  31 H :    0.110346
  32 H :    0.105741
  33 H :    0.130238
  34 H :    0.112307
  35 H :    0.115323
  36 H :    0.110320
  37 H :    0.102920
  38 H :    0.110165
  39 H :    0.114921
  40 H :    0.116101
Sum of atomic charges:    0.0000000

LOEWDIN ATOMIC CHARGES
----------------------
   0 C :   -0.368871
   1 C :   -0.107560
   2 O :   -0.245024
   3 P :    0.567571
   4 S :   -0.298883
   5 O :   -0.246243
   6 C :   -0.117298
   7 C :   -0.375613
   8 S :    0.082048
   9 C :   -0.474372
  10 S :    0.077833
  11 P :    0.564851
  12 S :   -0.301783
  13 O :   -0.242652
  14 C :   -0.116610
  15 C :   -0.359754
  16 O :   -0.250277
  17 C :   -0.120410
  18 C :   -0.351200
  19 H :    0.130945
  20 H :    0.120960
  21 H :    0.123109
  22 H :    0.121605
  23 H :    0.116431
  24 H :    0.116403
  25 H :    0.113376
  26 H :    0.132663
  27 H :    0.123155
  28 H :    0.121249
  29 H :    0.132898
  30 H :    0.130086
  31 H :    0.107312
  32 H :    0.117338
  33 H :    0.118355
  34 H :    0.131733
  35 H :    0.123934
  36 H :    0.108069
  37 H :    0.112012
  38 H :    0.129843
  39 H :    0.125728
  40 H :    0.127044

  Mayer bond orders larger than 0.100000
B(  0-C ,  1-C ) :   1.1701 B(  0-C , 19-H ) :   0.9352 B(  0-C , 20-H ) :   0.9365
B(  0-C , 21-H ) :   0.9455 B(  1-C ,  2-O ) :   0.8965 B(  1-C , 22-H ) :   0.9360
B(  1-C , 23-H ) :   0.9271 B(  2-O ,  3-P ) :   1.1029 B(  3-P ,  4-S ) :   1.7143
B(  3-P ,  5-O ) :   1.0744 B(  3-P ,  8-S ) :   0.9226 B(  4-S ,  8-S ) :   0.1129
B(  5-O ,  6-C ) :   0.9021 B(  6-C ,  7-C ) :   1.1664 B(  6-C , 24-H ) :   0.9337
B(  6-C , 25-H ) :   0.9110 B(  7-C , 26-H ) :   0.9376 B(  7-C , 27-H ) :   0.9170
B(  7-C , 28-H ) :   0.9449 B(  8-S ,  9-C ) :   1.0114 B(  9-C , 10-S ) :   0.9954
B(  9-C , 29-H ) :   0.9050 B(  9-C , 30-H ) :   0.8992 B( 10-S , 11-P ) :   0.9713
B( 10-S , 12-S ) :   0.1123 B( 11-P , 12-S ) :   1.6191 B( 11-P , 13-O ) :   1.1213
B( 11-P , 16-O ) :   1.1145 B( 13-O , 14-C ) :   0.8971 B( 14-C , 15-C ) :   1.1665
B( 14-C , 31-H ) :   0.8975 B( 14-C , 32-H ) :   0.9331 B( 15-C , 33-H ) :   0.9355
B( 15-C , 34-H ) :   0.9394 B( 15-C , 35-H ) :   0.9475 B( 16-O , 17-C ) :   0.9095
B( 17-C , 18-C ) :   1.1612 B( 17-C , 36-H ) :   0.9036 B( 17-C , 37-H ) :   0.9317
B( 18-C , 38-H ) :   0.9420 B( 18-C , 39-H ) :   0.9511 B( 18-C , 40-H ) :   0.9512

Dispersion correction           -0.066561621
FINAL SINGLE POINT ENERGY     -2929.508116721961

DIPOLE MOMENT
-------------

Method             : SCF
Type of density    : Electron Density
Multiplicity       :   1
Irrep              :   0
Energy             : -2929.6253119956531918 Eh
Relativity type    :
Basis              : AO
                                X                 Y                 Z
Electronic contribution:     -0.562936563      -4.003085735     -12.645421255
Nuclear contribution   :      1.241439478       3.676841920      13.955296919
                        -----------------------------------------
Total Dipole Moment    :      0.678502914      -0.326243815       1.309875664
                        -----------------------------------------
Magnitude (a.u.)       :      1.510819475
Magnitude (Debye)      :      3.840197920

Rotational constants in cm-1:             0.011772             0.005298             0.004995
Rotational constants in MHz :           352.904302           158.815986           149.759187

                             ****ORCA TERMINATED NORMALLY****
TOTAL RUN TIME: 0 days 0 hours 0 minutes 20 seconds 866 msec
