                         Program Version 6.0.0  -   RELEASE  -
|  1> ! wb97x-v def2-tzvp def2/J RIJCOSX DEFGRID2 scfconv7 GCP(DFT/TZ) printgap
|  2> %output
|  3>     printlevel normal
|  4> end
|  5> * xyz 0 1
|  6> C 3.513062479019202 -3.7457671112448014e-06 -6.238784695397969e-06
|  7> C 2.825429406361395 -1.2093370447154566 -4.936463762832271e-06
|  8> C 1.4233979432547446 -1.2339383706894238 1.4236826139810064e-06
|  9> C 0.6806374913247627 -2.45775106938881 5.9005447878319215e-06
| 10> C -0.6806404436896873 -2.457749867214855 7.903101126033137e-06
| 11> C -1.4233988840075213 -1.2339360422399406 3.5832623515005283e-06
| 12> C -2.8254302792656416 -1.209332456352877 -1.8908204325821706e-06
| 13> C -3.513061333822245 1.9256205018165774e-06 -8.503653764170078e-06
| 14> C -2.825428176839652 1.2093356708320588 -7.075051807711471e-06
| 15> C -1.4233971796484999 1.2339374267850738 -5.0973815042464284e-08
| 16> C -0.7099283553843416 7.995782984869993e-08 3.131796544626897e-06
| 17> C 0.709929005897558 -1.119097710250286e-06 3.486456127817888e-06
| 18> C 1.4234001721213212 1.2339350174669992 3.5747416458897624e-06
| 19> C 2.82543122309225 1.2093310905274297 -8.648859048842492e-07
| 20> C 0.6806413978973557 2.4577490408630633 6.2928258702667656e-06
| 21> C -0.6806364088485126 2.457750096356488 3.602513209870911e-06
| 22> H 4.59855822310342 -4.142479401931037e-06 -1.265335444532045e-05
| 23> H 3.3698354760463527 -2.1492191921377266 -8.785626057838246e-06
| 24> H 1.2323086294617716 -3.3936096490797047 7.164915670898977e-06
| 25> H -1.23231283384326 -3.393607601525301 1.110474312510017e-05
| 26> H -3.369837761889736 -2.1492136722325568 -1.2433603623015768e-06
| 27> H -4.598557012222515 3.433020278760377e-06 -1.5148885668850248e-05
| 28> H -3.369835502202106 2.1492169622349313 -1.2443741250760824e-05
| 29> H 3.3698400949834846 2.1492116048902488 -1.0955238074503723e-06
| 30> H 1.2323140314497119 3.393606756794534 9.96232156415733e-06
| 31> H -1.2323071950497722 3.3936087863834925 4.64991137161272e-06
| 32> *
| 33>
| 34>                          ****END OF INPUT****

CARTESIAN COORDINATES (ANGSTROEM)
---------------------------------
  C      3.513062   -0.000004   -0.000006
  C      2.825429   -1.209337   -0.000005
  C      1.423398   -1.233938    0.000001
  C      0.680637   -2.457751    0.000006
  C     -0.680640   -2.457750    0.000008
  C     -1.423399   -1.233936    0.000004
  C     -2.825430   -1.209332   -0.000002
  C     -3.513061    0.000002   -0.000009
  C     -2.825428    1.209336   -0.000007
  C     -1.423397    1.233937   -0.000000
  C     -0.709928    0.000000    0.000003
  C      0.709929   -0.000001    0.000003
  C      1.423400    1.233935    0.000004
  C      2.825431    1.209331   -0.000001
  C      0.680641    2.457749    0.000006
  C     -0.680636    2.457750    0.000004
  H      4.598558   -0.000004   -0.000013
  H      3.369835   -2.149219   -0.000009
  H      1.232309   -3.393610    0.000007
  H     -1.232313   -3.393608    0.000011
  H     -3.369838   -2.149214   -0.000001
  H     -4.598557    0.000003   -0.000015
  H     -3.369836    2.149217   -0.000012
  H      3.369840    2.149212   -0.000001
  H      1.232314    3.393607    0.000010
  H     -1.232307    3.393609    0.000005

 Total Charge           Charge          ....    0
 Multiplicity           Mult            ....    1
 Number of Electrons    NEL             ....  106
 Basis Dimension        Dim             ....  556

ORBITAL ENERGIES
----------------

  NO   OCC          E(Eh)            E(eV)
   0   2.0000     -12.065587      -328.3213
   1   2.0000     -12.065431      -328.3171
   2   2.0000     -12.065152      -328.3095
   3   2.0000     -12.064766      -328.2990
   4   2.0000     -12.063473      -328.2638
   5   2.0000     -12.061754      -328.2170
   6   2.0000     -12.058125      -328.1183
   7   2.0000     -12.057963      -328.1138
   8   2.0000     -12.056809      -328.0825
   9   2.0000     -12.056711      -328.0798
  10   2.0000     -12.056111      -328.0634
  11   2.0000     -12.055838      -328.0560
  12   2.0000     -12.055351      -328.0428
  13   2.0000     -12.055131      -328.0368
  14   2.0000     -12.053896      -328.0032
  15   2.0000     -12.053754      -327.9993
  16   2.0000      -1.423265       -38.7290
  17   2.0000      -1.381111       -37.5819
  18   2.0000      -1.361418       -37.0461
  19   2.0000      -1.326189       -36.0874
  20   2.0000      -1.299199       -35.3530
  21   2.0000      -1.282060       -34.8866
  22   2.0000      -1.263503       -34.3817
  23   2.0000      -1.240289       -33.7500
  24   2.0000      -1.147294       -31.2194
  25   2.0000      -1.145018       -31.1575
  26   2.0000      -1.128650       -30.7121
  27   2.0000      -1.113565       -30.3016
  28   2.0000      -1.050772       -28.5930
  29   2.0000      -1.009381       -27.4666
  30   2.0000      -1.001283       -27.2463
  31   2.0000      -0.995706       -27.0945
  32   2.0000      -0.975527       -26.5454
  33   2.0000      -0.941645       -25.6235
  34   2.0000      -0.927244       -25.2316
  35   2.0000      -0.924795       -25.1650
  36   2.0000      -0.906055       -24.6550
  37   2.0000      -0.896056       -24.3829
  38   2.0000      -0.877573       -23.8800
  39   2.0000      -0.861823       -23.4514
  40   2.0000      -0.854989       -23.2654
  41   2.0000      -0.838642       -22.8206
  42   2.0000      -0.838266       -22.8104
  43   2.0000      -0.822106       -22.3706
  44   2.0000      -0.816004       -22.2046
  45   2.0000      -0.795398       -21.6439
  46   2.0000      -0.768269       -20.9057
  47   2.0000      -0.745482       -20.2856
  48   2.0000      -0.694239       -18.8912
  49   2.0000      -0.668179       -18.1821
  50   2.0000      -0.652565       -17.7572
  51   2.0000      -0.615395       -16.7457
  52   2.0000      -0.576151       -15.6779
  53   0.0000      -0.314513        -8.5583
  54   0.0000      -0.280696        -7.6381
  55   0.0000      -0.242572        -6.6007
  56   0.0000      -0.224666        -6.1135
  57   0.0000      -0.179243        -4.8775

MULLIKEN ATOMIC CHARGES
-----------------------
   0 C :   -0.108177
   1 C :   -0.182281
   2 C :    0.141476
   3 C :   -0.209374
   4 C :   -0.208132
   5 C :    0.140943
   6 C :   -0.181831
   7 C :   -0.109249
   8 C :   -0.180814
   9 C :    0.140511
  10 C :    0.037818
  11 C :    0.038015
  12 C :    0.141444
  13 C :   -0.182767
  14 C :   -0.208092
  15 C :   -0.209365
  16 H :    0.116008
  17 H :    0.115585
  18 H :    0.111359
  19 H :    0.111399
  20 H :    0.115611
  21 H :    0.115895
  22 H :    0.115637
  23 H :    0.115536
  24 H :    0.111466
  25 H :    0.111380
Sum of atomic charges:    0.0000000

LOEWDIN ATOMIC CHARGES
----------------------
   0 C :   -0.139206
   1 C :   -0.100937
   2 C :   -0.092763
   3 C :   -0.097492
   4 C :   -0.097490
   5 C :   -0.092761
   6 C :   -0.100939
   7 C :   -0.139205
   8 C :   -0.100935
   9 C :   -0.092765
  10 C :   -0.004493
  11 C :   -0.004493
  12 C :   -0.092760
  13 C :   -0.100940
  14 C :   -0.097491
  15 C :   -0.097493
  16 H :    0.143141
  17 H :    0.144911
  18 H :    0.146560
  19 H :    0.146560
  20 H :    0.144911
  21 H :    0.143141
  22 H :    0.144910
  23 H :    0.144911
  24 H :    0.146560
  25 H :    0.146560

  Mayer bond orders larger than 0.100000
B(  0-C ,  1-C ) :   1.4086 B(  0-C , 13-C ) :   1.4086 B(  0-C , 16-H ) :   0.9813
B(  1-C ,  2-C ) :   1.3462 B(  1-C , 17-H ) :   0.9814 B(  2-C ,  3-C ) :   1.1030
B(  2-C , 11-C ) :   1.2775 B(  3-C ,  4-C ) :   1.6753 B(  3-C , 18-H ) :   0.9923
B(  4-C ,  5-C ) :   1.1036 B(  4-C , 19-H ) :   0.9921 B(  5-C ,  6-C ) :   1.3462
B(  5-C , 10-C ) :   1.2772 B(  6-C ,  7-C ) :   1.4078 B(  6-C , 20-H ) :   0.9812
B(  7-C ,  8-C ) :   1.4076 B(  7-C , 21-H ) :   0.9822 B(  8-C ,  9-C ) :   1.3473
B(  8-C , 22-H ) :   0.9806 B(  9-C , 10-C ) :   1.2776 B(  9-C , 15-C ) :   1.1032
B( 10-C , 11-C ) :   1.1519 B( 11-C , 12-C ) :   1.2774 B( 12-C , 13-C ) :   1.3463
B( 12-C , 14-C ) :   1.1035 B( 13-C , 23-H ) :   0.9814 B( 14-C , 15-C ) :   1.6754
B( 14-C , 24-H ) :   0.9919 B( 15-C , 25-H ) :   0.9922

FINAL SINGLE POINT ENERGY      -615.795415356350

DIPOLE MOMENT
-------------

Method             : SCF
Type of density    : Electron Density
Multiplicity       :   1
Irrep              :   0
Energy             :  -615.8079473362499812 Eh
Relativity type    :
Basis              : AO
                                X                 Y                 Z
Electronic contribution:     -0.000008898       0.000000235       0.000019398
Nuclear contribution   :      0.000000993      -0.000000766      -0.000021684
                        -----------------------------------------
Total Dipole Moment    :     -0.000007905      -0.000000532      -0.000002286
                        -----------------------------------------
Magnitude (a.u.)       :      0.000008246
Magnitude (Debye)      :      0.000020960

Rotational constants in cm-1:             0.033804             0.018601             0.011999
Rotational constants in MHz :          1013.421770           557.657807           359.716064

                             ****ORCA TERMINATED NORMALLY****
TOTAL RUN TIME: 0 days 0 hours 12 minutes 6 seconds 785 msec
