                         Program Version 6.0.0  -   RELEASE  -
|  1> ! wb97x-v def2-tzvp def2/J RIJCOSX DEFGRID2 scfconv7 GCP(DFT/TZ) printgap
|  2> %output
|  3>     printlevel normal
|  4> end
|  5> %cpcm
|  6>     smd true
|  7>     smdsolvent "water"
|  8> end
|  9> * xyz 0 1
| 10> C 3.513062479019202 -3.7457671112448014e-06 -6.238784695397969e-06
| 11> C 2.825429406361395 -1.2093370447154566 -4.936463762832271e-06
| 12> C 1.4233979432547446 -1.2339383706894238 1.4236826139810064e-06
| 13> C 0.6806374913247627 -2.45775106938881 5.9005447878319215e-06
| 14> C -0.6806404436896873 -2.457749867214855 7.903101126033137e-06
| 15> C -1.4233988840075213 -1.2339360422399406 3.5832623515005283e-06
| 16> C -2.8254302792656416 -1.209332456352877 -1.8908204325821706e-06
| 17> C -3.513061333822245 1.9256205018165774e-06 -8.503653764170078e-06
| 18> C -2.825428176839652 1.2093356708320588 -7.075051807711471e-06
| 19> C -1.4233971796484999 1.2339374267850738 -5.0973815042464284e-08
| 20> C -0.7099283553843416 7.995782984869993e-08 3.131796544626897e-06
| 21> C 0.709929005897558 -1.119097710250286e-06 3.486456127817888e-06
| 22> C 1.4234001721213212 1.2339350174669992 3.5747416458897624e-06
| 23> C 2.82543122309225 1.2093310905274297 -8.648859048842492e-07
| 24> C 0.6806413978973557 2.4577490408630633 6.2928258702667656e-06
| 25> C -0.6806364088485126 2.457750096356488 3.602513209870911e-06
| 26> H 4.59855822310342 -4.142479401931037e-06 -1.265335444532045e-05
| 27> H 3.3698354760463527 -2.1492191921377266 -8.785626057838246e-06
| 28> H 1.2323086294617716 -3.3936096490797047 7.164915670898977e-06
| 29> H -1.23231283384326 -3.393607601525301 1.110474312510017e-05
| 30> H -3.369837761889736 -2.1492136722325568 -1.2433603623015768e-06
| 31> H -4.598557012222515 3.433020278760377e-06 -1.5148885668850248e-05
| 32> H -3.369835502202106 2.1492169622349313 -1.2443741250760824e-05
| 33> H 3.3698400949834846 2.1492116048902488 -1.0955238074503723e-06
| 34> H 1.2323140314497119 3.393606756794534 9.96232156415733e-06
| 35> H -1.2323071950497722 3.3936087863834925 4.64991137161272e-06
| 36> *
| 37>
| 38>                          ****END OF INPUT****

CARTESIAN COORDINATES (ANGSTROEM)
---------------------------------
  C      3.513062   -0.000004   -0.000006
  C      2.825429   -1.209337   -0.000005
  C      1.423398   -1.233938    0.000001
  C      0.680637   -2.457751    0.000006
  C     -0.680640   -2.457750    0.000008
  C     -1.423399   -1.233936    0.000004
  C     -2.825430   -1.209332   -0.000002
  C     -3.513061    0.000002   -0.000009
  C     -2.825428    1.209336   -0.000007
  C     -1.423397    1.233937   -0.000000
  C     -0.709928    0.000000    0.000003
  C      0.709929   -0.000001    0.000003
  C      1.423400    1.233935    0.000004
  C      2.825431    1.209331   -0.000001
  C      0.680641    2.457749    0.000006
  C     -0.680636    2.457750    0.000004
  H      4.598558   -0.000004   -0.000013
  H      3.369835   -2.149219   -0.000009
  H      1.232309   -3.393610    0.000007
  H     -1.232313   -3.393608    0.000011
  H     -3.369838   -2.149214   -0.000001
  H     -4.598557    0.000003   -0.000015
  H     -3.369836    2.149217   -0.000012
  H      3.369840    2.149212   -0.000001
  H      1.232314    3.393607    0.000010
  H     -1.232307    3.393609    0.000005

 Total Charge           Charge          ....    0
 Multiplicity           Mult            ....    1
 Number of Electrons    NEL             ....  106
 Basis Dimension        Dim             ....  556

ORBITAL ENERGIES
----------------

  NO   OCC          E(Eh)            E(eV)
   0   2.0000     -12.066027      -328.3333
   1   2.0000     -12.065476      -328.3183
   2   2.0000     -12.064849      -328.3012
   3   2.0000     -12.064464      -328.2907
   4   2.0000     -12.063662      -328.2689
   5   2.0000     -12.062347      -328.2331
   6   2.0000     -12.054897      -328.0304
   7   2.0000     -12.054776      -328.0271
   8   2.0000     -12.053702      -327.9979
   9   2.0000     -12.053611      -327.9954
  10   2.0000     -12.052985      -327.9784
  11   2.0000     -12.052644      -327.9691
  12   2.0000     -12.052459      -327.9641
  13   2.0000     -12.052151      -327.9557
  14   2.0000     -12.050839      -327.9200
  15   2.0000     -12.050711      -327.9165
  16   2.0000      -1.423912       -38.7466
  17   2.0000      -1.380879       -37.5756
  18   2.0000      -1.360619       -37.0243
  19   2.0000      -1.325033       -36.0560
  20   2.0000      -1.298440       -35.3323
  21   2.0000      -1.281388       -34.8683
  22   2.0000      -1.262714       -34.3602
  23   2.0000      -1.238684       -33.7063
  24   2.0000      -1.145241       -31.1636
  25   2.0000      -1.143820       -31.1249
  26   2.0000      -1.127414       -30.6785
  27   2.0000      -1.112071       -30.2610
  28   2.0000      -1.048354       -28.5272
  29   2.0000      -1.006795       -27.3963
  30   2.0000      -0.999775       -27.2053
  31   2.0000      -0.994070       -27.0500
  32   2.0000      -0.972778       -26.4706
  33   2.0000      -0.940618       -25.5955
  34   2.0000      -0.923170       -25.1207
  35   2.0000      -0.922638       -25.1063
  36   2.0000      -0.901072       -24.5194
  37   2.0000      -0.892963       -24.2988
  38   2.0000      -0.873462       -23.7681
  39   2.0000      -0.856654       -23.3107
  40   2.0000      -0.850176       -23.1345
  41   2.0000      -0.834341       -22.7036
  42   2.0000      -0.834084       -22.6966
  43   2.0000      -0.824060       -22.4238
  44   2.0000      -0.812733       -22.1156
  45   2.0000      -0.791979       -21.5508
  46   2.0000      -0.769253       -20.9324
  47   2.0000      -0.745839       -20.2953
  48   2.0000      -0.694060       -18.8863
  49   2.0000      -0.669011       -18.2047
  50   2.0000      -0.653253       -17.7759
  51   2.0000      -0.616281       -16.7699
  52   2.0000      -0.575701       -15.6656
  53   0.0000      -0.313816        -8.5394
  54   0.0000      -0.281513        -7.6604
  55   0.0000      -0.243220        -6.6184
  56   0.0000      -0.225230        -6.1288
  57   0.0000      -0.178145        -4.8476

MULLIKEN ATOMIC CHARGES
-----------------------
   0 C :   -0.143738
   1 C :   -0.220042
   2 C :    0.117819
   3 C :   -0.248888
   4 C :   -0.247670
   5 C :    0.117283
   6 C :   -0.219581
   7 C :   -0.144800
   8 C :   -0.218574
   9 C :    0.116844
  10 C :    0.042151
  11 C :    0.042626
  12 C :    0.117679
  13 C :   -0.220502
  14 C :   -0.247621
  15 C :   -0.248922
  16 H :    0.160661
  17 H :    0.162787
  18 H :    0.158354
  19 H :    0.158393
  20 H :    0.162803
  21 H :    0.160543
  22 H :    0.162841
  23 H :    0.162733
  24 H :    0.158454
  25 H :    0.158367
Sum of atomic charges:    0.0000000

LOEWDIN ATOMIC CHARGES
----------------------
   0 C :   -0.145186
   1 C :   -0.104854
   2 C :   -0.103650
   3 C :   -0.102434
   4 C :   -0.102431
   5 C :   -0.103648
   6 C :   -0.104856
   7 C :   -0.145184
   8 C :   -0.104852
   9 C :   -0.103653
  10 C :   -0.015067
  11 C :   -0.015067
  12 C :   -0.103648
  13 C :   -0.104857
  14 C :   -0.102432
  15 C :   -0.102434
  16 H :    0.153335
  17 H :    0.156406
  18 H :    0.157989
  19 H :    0.157989
  20 H :    0.156406
  21 H :    0.153336
  22 H :    0.156405
  23 H :    0.156406
  24 H :    0.157989
  25 H :    0.157990

  Mayer bond orders larger than 0.100000
B(  0-C ,  1-C ) :   1.3870 B(  0-C , 13-C ) :   1.3870 B(  0-C , 16-H ) :   0.9854
B(  1-C ,  2-C ) :   1.3350 B(  1-C , 17-H ) :   0.9864 B(  2-C ,  3-C ) :   1.0914
B(  2-C , 11-C ) :   1.2547 B(  3-C ,  4-C ) :   1.6511 B(  3-C , 18-H ) :   1.0011
B(  4-C ,  5-C ) :   1.0920 B(  4-C , 19-H ) :   1.0009 B(  5-C ,  6-C ) :   1.3349
B(  5-C , 10-C ) :   1.2543 B(  6-C ,  7-C ) :   1.3862 B(  6-C , 20-H ) :   0.9863
B(  7-C ,  8-C ) :   1.3860 B(  7-C , 21-H ) :   0.9863 B(  8-C ,  9-C ) :   1.3361
B(  8-C , 22-H ) :   0.9857 B(  9-C , 10-C ) :   1.2548 B(  9-C , 15-C ) :   1.0915
B( 10-C , 11-C ) :   1.1594 B( 11-C , 12-C ) :   1.2546 B( 12-C , 13-C ) :   1.3351
B( 12-C , 14-C ) :   1.0919 B( 13-C , 23-H ) :   0.9864 B( 14-C , 15-C ) :   1.6512
B( 14-C , 24-H ) :   1.0008 B( 15-C , 25-H ) :   1.0010

FINAL SINGLE POINT ENERGY      -615.801281501828

DIPOLE MOMENT
-------------

Method             : SCF
Type of density    : Electron Density
Multiplicity       :   1
Irrep              :   0
Energy             :  -615.8138134817280616 Eh
Relativity type    :
Basis              : AO
                                X                 Y                 Z
Electronic contribution:     -0.000012448      -0.000000922       0.000018910
Nuclear contribution   :      0.000000993      -0.000000766      -0.000021684
                        -----------------------------------------
Total Dipole Moment    :     -0.000011455      -0.000001689      -0.000002774
                        -----------------------------------------
Magnitude (a.u.)       :      0.000011906
Magnitude (Debye)      :      0.000030263

Rotational constants in cm-1:             0.033804             0.018601             0.011999
Rotational constants in MHz :          1013.421770           557.657807           359.716064

                             ****ORCA TERMINATED NORMALLY****
TOTAL RUN TIME: 0 days 0 hours 11 minutes 45 seconds 651 msec
