                         Program Version 6.0.1  -  RELEASE   -
|  1> ! pbe def2-sv(p) def2/J RI DEFGRID1 loosescf d4 GCP(DFT/SV(P)) printgap
|  2> %output
|  3>     printlevel normal
|  4> end
|  5> * xyz 0 1
|  6> C 5.2917926581 -1.8738414867 -1.3352051924
|  7> C 4.5138358543 -0.5746670301 -1.1981679825
|  8> O 3.0946405774 -0.8132199795 -1.2572295327
|  9> C 2.4655194287 -1.1284523351 -0.1413117516
| 10> O 2.9930274128 -1.2327166498 0.9417358317
| 11> C 0.9834755882 -1.3569310037 -0.3884030179
| 12> C 0.3569096386 -0.1365838915 -1.065933174
| 13> H 0.863752159 0.0577766757 -2.0151634344
| 14> C 0.4567287152 1.0917267336 -0.1847210924
| 15> O -0.5170882627 1.7003619897 0.2140536941
| 16> O 1.6932224891 1.3995234514 0.0917516036
| 17> C 1.9363423562 2.4886444285 1.0113155075
| 18> C 3.3831614882 2.407646258 1.4537307886
| 19> S -1.3911843766 -0.4017444644 -1.4910103821
| 20> P -2.4043838167 -0.0168197264 0.3447120374
| 21> S -1.5423120691 -0.424643862 2.0590494582
| 22> O -3.1505281708 1.3750448644 0.2917934029
| 23> C -3.9669662225 1.7749666916 -0.8256652751
| 24> O -3.679270665 -0.9715460312 0.0967076528
| 25> C -3.5732509289 -2.3955276682 0.1502392322
| 26> H 5.0140873373 -2.3825239013 -2.2541433302
| 27> H 6.354383694 -1.6554337817 -1.3538813086
| 28> H 5.0809835158 -2.525992262 -0.4907110384
| 29> H 4.7118716008 0.0970372752 -2.0334082275
| 30> H 4.7445687593 -0.0841308253 -0.2488429224
| 31> H 0.5019211596 -1.5613261373 0.5705495347
| 32> H 0.8674909473 -2.2196652574 -1.0459613775
| 33> H 1.7182501355 3.4247791276 0.4895617523
| 34> H 1.2432333022 2.3843152709 1.8518181583
| 35> H 3.5764430801 1.435882616 1.9016299846
| 36> H 4.0435444279 2.5451575128 0.6027751626
| 37> H 3.5759001908 3.1828534088 2.1875170854
| 38> H -4.2987005589 2.7813682718 -0.5838394938
| 39> H -4.8138564455 1.0986338183 -0.9276787819
| 40> H -3.3735516599 1.7747733619 -1.7400249663
| 41> H -3.0806259008 -2.7642479114 -0.7492635885
| 42> H -4.594054512 -2.7646450788 0.2073325696
| 43> H -3.0107243739 -2.6959715296 1.036132461
| 44> *
| 45>
| 46>                          ****END OF INPUT****

CARTESIAN COORDINATES (ANGSTROEM)
---------------------------------
  C      5.291793   -1.873841   -1.335205
  C      4.513836   -0.574667   -1.198168
  O      3.094641   -0.813220   -1.257230
  C      2.465519   -1.128452   -0.141312
  O      2.993027   -1.232717    0.941736
  C      0.983476   -1.356931   -0.388403
  C      0.356910   -0.136584   -1.065933
  H      0.863752    0.057777   -2.015163
  C      0.456729    1.091727   -0.184721
  O     -0.517088    1.700362    0.214054
  O      1.693222    1.399523    0.091752
  C      1.936342    2.488644    1.011316
  C      3.383161    2.407646    1.453731
  S     -1.391184   -0.401744   -1.491010
  P     -2.404384   -0.016820    0.344712
  S     -1.542312   -0.424644    2.059049
  O     -3.150528    1.375045    0.291793
  C     -3.966966    1.774967   -0.825665
  O     -3.679271   -0.971546    0.096708
  C     -3.573251   -2.395528    0.150239
  H      5.014087   -2.382524   -2.254143
  H      6.354384   -1.655434   -1.353881
  H      5.080984   -2.525992   -0.490711
  H      4.711872    0.097037   -2.033408
  H      4.744569   -0.084131   -0.248843
  H      0.501921   -1.561326    0.570550
  H      0.867491   -2.219665   -1.045961
  H      1.718250    3.424779    0.489562
  H      1.243233    2.384315    1.851818
  H      3.576443    1.435883    1.901630
  H      4.043544    2.545158    0.602775
  H      3.575900    3.182853    2.187517
  H     -4.298701    2.781368   -0.583839
  H     -4.813856    1.098634   -0.927679
  H     -3.373552    1.774773   -1.740025
  H     -3.080626   -2.764248   -0.749264
  H     -4.594055   -2.764645    0.207333
  H     -3.010724   -2.695972    1.036132

 Total Charge           Charge          ....    0
 Multiplicity           Mult            ....    1
 Number of Electrons    NEL             ....  174
 Basis Dimension        Dim             ....  316

ORBITAL ENERGIES
----------------

  NO   OCC          E(Eh)            E(eV)
   0   2.0000     -88.037858     -2395.6319
   1   2.0000     -87.971144     -2393.8165
   2   2.0000     -76.419537     -2079.4813
   3   2.0000     -18.821451      -512.1577
   4   2.0000     -18.805086      -511.7124
   5   2.0000     -18.780234      -511.0362
   6   2.0000     -18.778755      -510.9959
   7   2.0000     -18.752418      -510.2792
   8   2.0000     -18.739148      -509.9181
   9   2.0000     -10.025022      -272.7947
  10   2.0000     -10.011469      -272.4259
  11   2.0000      -9.955569      -270.9048
  12   2.0000      -9.953553      -270.8500
  13   2.0000      -9.952607      -270.8242
  14   2.0000      -9.941085      -270.5107
  15   2.0000      -9.934226      -270.3240
  16   2.0000      -9.907500      -269.5968
  17   2.0000      -9.891073      -269.1498
  18   2.0000      -9.890749      -269.1410
  19   2.0000      -7.682725      -209.0576
  20   2.0000      -7.616324      -207.2507
  21   2.0000      -6.415324      -174.5698
  22   2.0000      -5.710650      -155.3947
  23   2.0000      -5.707132      -155.2989
  24   2.0000      -5.699743      -155.0979
  25   2.0000      -5.645641      -153.6257
  26   2.0000      -5.637007      -153.3908
  27   2.0000      -5.635971      -153.3626
  28   2.0000      -4.638193      -126.2117
  29   2.0000      -4.637405      -126.1902
  30   2.0000      -4.635623      -126.1417
  31   2.0000      -1.030857       -28.0511
  32   2.0000      -1.012367       -27.5479
  33   2.0000      -0.975065       -26.5329
  34   2.0000      -0.933478       -25.4012
  35   2.0000      -0.928076       -25.2542
  36   2.0000      -0.916496       -24.9391
  37   2.0000      -0.768798       -20.9201
  38   2.0000      -0.715295       -19.4642
  39   2.0000      -0.712256       -19.3815
  40   2.0000      -0.686998       -18.6942
  41   2.0000      -0.657649       -17.8955
  42   2.0000      -0.626604       -17.0508
  43   2.0000      -0.621835       -16.9210
  44   2.0000      -0.610616       -16.6157
  45   2.0000      -0.595842       -16.2137
  46   2.0000      -0.565719       -15.3940
  47   2.0000      -0.520167       -14.1545
  48   2.0000      -0.507082       -13.7984
  49   2.0000      -0.501428       -13.6446
  50   2.0000      -0.483471       -13.1559
  51   2.0000      -0.467210       -12.7134
  52   2.0000      -0.465472       -12.6661
  53   2.0000      -0.455705       -12.4004
  54   2.0000      -0.442801       -12.0492
  55   2.0000      -0.428680       -11.6650
  56   2.0000      -0.421519       -11.4701
  57   2.0000      -0.420734       -11.4488
  58   2.0000      -0.409861       -11.1529
  59   2.0000      -0.405848       -11.0437
  60   2.0000      -0.401857       -10.9351
  61   2.0000      -0.393785       -10.7154
  62   2.0000      -0.390957       -10.6385
  63   2.0000      -0.382200       -10.4002
  64   2.0000      -0.377049       -10.2600
  65   2.0000      -0.372216       -10.1285
  66   2.0000      -0.363542        -9.8925
  67   2.0000      -0.357806        -9.7364
  68   2.0000      -0.344988        -9.3876
  69   2.0000      -0.341669        -9.2973
  70   2.0000      -0.336510        -9.1569
  71   2.0000      -0.329035        -8.9535
  72   2.0000      -0.324686        -8.8351
  73   2.0000      -0.316903        -8.6234
  74   2.0000      -0.308229        -8.3873
  75   2.0000      -0.299662        -8.1542
  76   2.0000      -0.291087        -7.9209
  77   2.0000      -0.287456        -7.8221
  78   2.0000      -0.275730        -7.5030
  79   2.0000      -0.263546        -7.1715
  80   2.0000      -0.261638        -7.1195
  81   2.0000      -0.250481        -6.8159
  82   2.0000      -0.239220        -6.5095
  83   2.0000      -0.230146        -6.2626
  84   2.0000      -0.215790        -5.8719
  85   2.0000      -0.190676        -5.1885
  86   2.0000      -0.184058        -5.0085
  87   0.0000      -0.042973        -1.1693
  88   0.0000      -0.035271        -0.9598
  89   0.0000      -0.020168        -0.5488
  90   0.0000       0.006915         0.1882
  91   0.0000       0.029666         0.8072

MULLIKEN ATOMIC CHARGES
-----------------------
   0 C :   -0.302287
   1 C :   -0.021130
   2 O :   -0.243442
   3 C :    0.109881
   4 O :   -0.194943
   5 C :   -0.044117
   6 C :   -0.318037
   7 H :    0.156666
   8 C :    0.212294
   9 O :   -0.182681
  10 O :   -0.224202
  11 C :   -0.028167
  12 C :   -0.295309
  13 S :   -0.097378
  14 P :    0.620959
  15 S :   -0.318941
  16 O :   -0.356492
  17 C :   -0.101780
  18 O :   -0.398688
  19 C :   -0.098912
  20 H :    0.113457
  21 H :    0.113262
  22 H :    0.128874
  23 H :    0.100592
  24 H :    0.114187
  25 H :    0.120486
  26 H :    0.116989
  27 H :    0.107805
  28 H :    0.129236
  29 H :    0.146060
  30 H :    0.112616
  31 H :    0.115266
  32 H :    0.128843
  33 H :    0.121973
  34 H :    0.114443
  35 H :    0.108059
  36 H :    0.120135
  37 H :    0.114421
Sum of atomic charges:    0.0000000

LOEWDIN ATOMIC CHARGES
----------------------
   0 C :   -0.355696
   1 C :   -0.111240
   2 O :   -0.064354
   3 C :    0.023793
   4 O :   -0.160678
   5 C :   -0.249750
   6 C :   -0.268154
   7 H :    0.149867
   8 C :    0.021068
   9 O :   -0.147686
  10 O :   -0.034950
  11 C :   -0.100548
  12 C :   -0.354548
  13 S :    0.094515
  14 P :    0.588185
  15 S :   -0.318708
  16 O :   -0.233229
  17 C :   -0.208870
  18 O :   -0.269178
  19 C :   -0.220928
  20 H :    0.124689
  21 H :    0.130942
  22 H :    0.131720
  23 H :    0.116651
  24 H :    0.120385
  25 H :    0.134772
  26 H :    0.142004
  27 H :    0.118432
  28 H :    0.128606
  29 H :    0.136679
  30 H :    0.123125
  31 H :    0.133108
  32 H :    0.125125
  33 H :    0.114319
  34 H :    0.108285
  35 H :    0.104088
  36 H :    0.119877
  37 H :    0.108280

  Mayer bond orders larger than 0.100000
B(  0-C ,  1-C ) :   1.1736 B(  0-C , 20-H ) :   0.9485 B(  0-C , 21-H ) :   0.9441
B(  0-C , 22-H ) :   0.9455 B(  1-C ,  2-O ) :   0.9168 B(  1-C , 23-H ) :   0.9375
B(  1-C , 24-H ) :   0.9102 B(  2-O ,  3-C ) :   1.1931 B(  3-C ,  4-O ) :   2.0503
B(  3-C ,  5-C ) :   1.0192 B(  5-C ,  6-C ) :   1.0284 B(  5-C , 25-H ) :   0.8752
B(  5-C , 26-H ) :   0.8863 B(  6-C ,  7-H ) :   0.8653 B(  6-C ,  8-C ) :   0.9033
B(  6-C , 13-S ) :   1.0263 B(  8-C ,  9-O ) :   1.9867 B(  8-C , 10-O ) :   1.2623
B(  9-O , 14-P ) :   0.1093 B( 10-O , 11-C ) :   0.8830 B( 11-C , 12-C ) :   1.1595
B( 11-C , 27-H ) :   0.9354 B( 11-C , 28-H ) :   0.9236 B( 12-C , 29-H ) :   0.9382
B( 12-C , 30-H ) :   0.9458 B( 12-C , 31-H ) :   0.9403 B( 13-S , 14-P ) :   0.9335
B( 13-S , 15-S ) :   0.1120 B( 14-P , 15-S ) :   1.6060 B( 14-P , 16-O ) :   1.1272
B( 14-P , 18-O ) :   1.0384 B( 16-O , 17-C ) :   0.9249 B( 17-C , 32-H ) :   0.9597
B( 17-C , 33-H ) :   0.9461 B( 17-C , 34-H ) :   0.9403 B( 18-O , 19-C ) :   0.9412
B( 19-C , 35-H ) :   0.9464 B( 19-C , 36-H ) :   0.9589 B( 19-C , 37-H ) :   0.9316

Dispersion correction           -0.052014302
FINAL SINGLE POINT ENERGY     -1979.012976994446

DIPOLE MOMENT
-------------

Method             : SCF
Type of density    : Electron Density
Multiplicity       :   1
Irrep              :   0
Energy             : -1979.1439605087589371 Eh
Relativity type    :
Basis              : AO
                                X                 Y                 Z
Electronic contribution:    -19.307048466       0.200563276       2.938751147
Nuclear contribution   :     20.182129641       0.181223393      -4.630298089
                        -----------------------------------------
Total Dipole Moment    :      0.875081175       0.381786669      -1.691546942
                        -----------------------------------------
Magnitude (a.u.)       :      1.942384920
Magnitude (Debye)      :      4.937150106

Rotational constants in cm-1:             0.017079             0.005897             0.005298
Rotational constants in MHz :           512.015415           176.797789           158.842439

                             ****ORCA TERMINATED NORMALLY****
TOTAL RUN TIME: 0 days 0 hours 0 minutes 51 seconds 234 msec
