                         Program Version 6.0.0  -   RELEASE  -
|  1> ! r2scan-3c def2/J RI DEFGRID2 scfconv6 printgap
|  2> %output
|  3>     printlevel normal
|  4> end
|  5> * xyz 0 1
|  6> C 1.0321757167 2.2893078061 1.9154886093
|  7> C 2.3653049626 1.6185518435 2.1765387593
|  8> O 2.9354415372 1.0860917634 0.9702242804
|  9> P 2.4902977646 -0.3133228097 0.350684268
| 10> S 2.1253458667 -1.6900687147 1.705777782
| 11> O 3.6810902639 -0.5855004442 -0.6574105857
| 12> C 5.010322392 -0.9304198847 -0.2030983778
| 13> C 5.1992838121 -2.4346961591 -0.1911752962
| 14> S 1.0039051971 0.0918764952 -1.0919239309
| 15> C -0.0847076735 -1.3242940971 -0.7598205276
| 16> S -1.2208335031 -1.0475085454 0.6273764114
| 17> P -2.4730234666 0.3153400415 -0.3812141107
| 18> S -2.8296003042 -0.0183953409 -2.2848868956
| 19> O -1.7318905105 1.6624534408 -0.0041822173
| 20> C -2.0416344222 2.9247851736 -0.6381285269
| 21> C -1.0829967739 3.1958257584 -1.7807781936
| 22> O -3.7864412058 0.4304637279 0.5093089604
| 23> C -4.934046732 -0.4106365808 0.2985982398
| 24> C -4.6526567384 -1.8546430479 0.6604056467
| 25> H 0.6832733486 2.7624950687 2.8277523605
| 26> H 1.137106218 3.0405700043 1.1368939748
| 27> H 0.2926043892 1.5562413493 1.5965667418
| 28> H 2.2571638491 0.8043033806 2.9014432735
| 29> H 3.1091484898 2.3339131603 2.5310880748
| 30> H 5.6762580176 -0.4509826006 -0.9225712833
| 31> H 5.1747706444 -0.5032473918 0.7894494938
| 32> H 4.5268422737 -2.8939358797 0.5302840471
| 33> H 4.989192959 -2.8435380103 -1.1755489301
| 34> H 6.2237482871 -2.6652389315 0.0831686449
| 35> H 0.5109790613 -2.1971217188 -0.5018248948
| 36> H -0.6638185005 -1.4874159804 -1.6687737895
| 37> H -3.0768847947 2.9091460792 -0.9891512697
| 38> H -1.9355471149 3.6629490224 0.1584156905
| 39> H -0.0560385328 3.1361908625 -1.4311064843
| 40> H -1.2182109899 2.4589327126 -2.5694464679
| 41> H -1.2733678702 4.185842807 -2.1822842328
| 42> H -5.7004717059 0.0252583407 0.9406787335
| 43> H -5.2342735322 -0.3290433706 -0.7511485225
| 44> H -4.251624397 -1.92061498 1.6687249186
| 45> H -5.5721694444 -2.4277139199 0.5982145746
| 46> H -3.9258258642 -2.276665706 -0.0326987432
| 47> *
| 48>
| 49>                          ****END OF INPUT****

CARTESIAN COORDINATES (ANGSTROEM)
---------------------------------
  C      1.032176    2.289308    1.915489
  C      2.365305    1.618552    2.176539
  O      2.935442    1.086092    0.970224
  P      2.490298   -0.313323    0.350684
  S      2.125346   -1.690069    1.705778
  O      3.681090   -0.585500   -0.657411
  C      5.010322   -0.930420   -0.203098
  C      5.199284   -2.434696   -0.191175
  S      1.003905    0.091876   -1.091924
  C     -0.084708   -1.324294   -0.759821
  S     -1.220834   -1.047509    0.627376
  P     -2.473023    0.315340   -0.381214
  S     -2.829600   -0.018395   -2.284887
  O     -1.731891    1.662453   -0.004182
  C     -2.041634    2.924785   -0.638129
  C     -1.082997    3.195826   -1.780778
  O     -3.786441    0.430464    0.509309
  C     -4.934047   -0.410637    0.298598
  C     -4.652657   -1.854643    0.660406
  H      0.683273    2.762495    2.827752
  H      1.137106    3.040570    1.136894
  H      0.292604    1.556241    1.596567
  H      2.257164    0.804303    2.901443
  H      3.109148    2.333913    2.531088
  H      5.676258   -0.450983   -0.922571
  H      5.174771   -0.503247    0.789449
  H      4.526842   -2.893936    0.530284
  H      4.989193   -2.843538   -1.175549
  H      6.223748   -2.665239    0.083169
  H      0.510979   -2.197122   -0.501825
  H     -0.663819   -1.487416   -1.668774
  H     -3.076885    2.909146   -0.989151
  H     -1.935547    3.662949    0.158416
  H     -0.056039    3.136191   -1.431106
  H     -1.218211    2.458933   -2.569446
  H     -1.273368    4.185843   -2.182284
  H     -5.700472    0.025258    0.940679
  H     -5.234274   -0.329043   -0.751149
  H     -4.251624   -1.920615    1.668725
  H     -5.572169   -2.427714    0.598215
  H     -3.925826   -2.276666   -0.032699

 Total Charge           Charge          ....    0
 Multiplicity           Mult            ....    1
 Number of Electrons    NEL             ....  202
 Basis Dimension        Dim             ....  539

ORBITAL ENERGIES
----------------

  NO   OCC          E(Eh)            E(eV)
   0   2.0000     -88.575022     -2410.2489
   1   2.0000     -88.574871     -2410.2448
   2   2.0000     -88.523021     -2408.8339
   3   2.0000     -88.521755     -2408.7994
   4   2.0000     -76.914285     -2092.9441
   5   2.0000     -76.913595     -2092.9253
   6   2.0000     -18.993280      -516.8334
   7   2.0000     -18.991747      -516.7917
   8   2.0000     -18.988959      -516.7159
   9   2.0000     -18.988142      -516.6936
  10   2.0000     -10.104575      -274.9595
  11   2.0000     -10.099819      -274.8300
  12   2.0000     -10.099237      -274.8142
  13   2.0000     -10.098031      -274.7814
  14   2.0000     -10.095025      -274.6996
  15   2.0000     -10.028119      -272.8790
  16   2.0000     -10.025208      -272.7998
  17   2.0000     -10.024169      -272.7715
  18   2.0000     -10.023575      -272.7553
  19   2.0000      -7.869154      -214.1306
  20   2.0000      -7.869124      -214.1297
  21   2.0000      -7.817806      -212.7333
  22   2.0000      -7.816600      -212.7005
  23   2.0000      -6.592732      -179.3974
  24   2.0000      -6.592281      -179.3851
  25   2.0000      -5.816064      -158.2632
  26   2.0000      -5.816051      -158.2628
  27   2.0000      -5.813100      -158.1825
  28   2.0000      -5.813078      -158.1819
  29   2.0000      -5.806206      -157.9949
  30   2.0000      -5.806043      -157.9905
  31   2.0000      -5.765448      -156.8858
  32   2.0000      -5.764158      -156.8507
  33   2.0000      -5.758218      -156.6891
  34   2.0000      -5.757679      -156.6744
  35   2.0000      -5.756991      -156.6557
  36   2.0000      -5.756574      -156.6443
  37   2.0000      -4.738143      -128.9314
  38   2.0000      -4.737808      -128.9223
  39   2.0000      -4.737585      -128.9162
  40   2.0000      -4.737073      -128.9023
  41   2.0000      -4.736638      -128.8905
  42   2.0000      -4.736092      -128.8756
  43   2.0000      -1.050038       -28.5730
  44   2.0000      -1.048964       -28.5438
  45   2.0000      -1.010388       -27.4940
  46   2.0000      -1.008442       -27.4411
  47   2.0000      -0.801159       -21.8006
  48   2.0000      -0.758751       -20.6467
  49   2.0000      -0.747371       -20.3370
  50   2.0000      -0.729905       -19.8617
  51   2.0000      -0.728508       -19.8237
  52   2.0000      -0.710903       -19.3447
  53   2.0000      -0.686146       -18.6710
  54   2.0000      -0.669958       -18.2305
  55   2.0000      -0.632490       -17.2109
  56   2.0000      -0.621223       -16.9043
  57   2.0000      -0.607422       -16.5288
  58   2.0000      -0.605829       -16.4854
  59   2.0000      -0.586022       -15.9465
  60   2.0000      -0.526449       -14.3254
  61   2.0000      -0.524685       -14.2774
  62   2.0000      -0.490402       -13.3445
  63   2.0000      -0.488883       -13.3032
  64   2.0000      -0.479323       -13.0430
  65   2.0000      -0.459741       -12.5102
  66   2.0000      -0.457524       -12.4498
  67   2.0000      -0.453802       -12.3486
  68   2.0000      -0.445841       -12.1319
  69   2.0000      -0.433686       -11.8012
  70   2.0000      -0.422347       -11.4926
  71   2.0000      -0.415011       -11.2930
  72   2.0000      -0.413398       -11.2491
  73   2.0000      -0.396014       -10.7761
  74   2.0000      -0.395130       -10.7520
  75   2.0000      -0.389516       -10.5993
  76   2.0000      -0.381269       -10.3748
  77   2.0000      -0.373044       -10.1510
  78   2.0000      -0.370094       -10.0708
  79   2.0000      -0.365413        -9.9434
  80   2.0000      -0.361576        -9.8390
  81   2.0000      -0.358575        -9.7573
  82   2.0000      -0.354463        -9.6454
  83   2.0000      -0.352657        -9.5963
  84   2.0000      -0.345127        -9.3914
  85   2.0000      -0.329489        -8.9659
  86   2.0000      -0.319333        -8.6895
  87   2.0000      -0.311217        -8.4686
  88   2.0000      -0.307557        -8.3691
  89   2.0000      -0.305671        -8.3177
  90   2.0000      -0.301159        -8.1949
  91   2.0000      -0.292873        -7.9695
  92   2.0000      -0.289749        -7.8845
  93   2.0000      -0.279475        -7.6049
  94   2.0000      -0.276386        -7.5208
  95   2.0000      -0.244530        -6.6540
  96   2.0000      -0.231316        -6.2944
  97   2.0000      -0.226223        -6.1558
  98   2.0000      -0.218672        -5.9504
  99   2.0000      -0.217563        -5.9202
 100   2.0000      -0.213411        -5.8072
 101   0.0000      -0.045030        -1.2253
 102   0.0000      -0.030372        -0.8265
 103   0.0000      -0.004892        -0.1331
 104   0.0000       0.000827         0.0225
 105   0.0000       0.013933         0.3791

MULLIKEN ATOMIC CHARGES
-----------------------
   0 C :   -0.449465
   1 C :   -0.158064
   2 O :   -0.287309
   3 P :    0.677813
   4 S :   -0.470446
   5 O :   -0.297318
   6 C :   -0.137606
   7 C :   -0.441992
   8 S :   -0.096165
   9 C :   -0.255522
  10 S :   -0.089177
  11 P :    0.672159
  12 S :   -0.485272
  13 O :   -0.274025
  14 C :   -0.120008
  15 C :   -0.464307
  16 O :   -0.305205
  17 C :   -0.150371
  18 C :   -0.452729
  19 H :    0.144925
  20 H :    0.147390
  21 H :    0.187654
  22 H :    0.171972
  23 H :    0.145276
  24 H :    0.150109
  25 H :    0.150001
  26 H :    0.177941
  27 H :    0.152868
  28 H :    0.143870
  29 H :    0.207546
  30 H :    0.217383
  31 H :    0.151610
  32 H :    0.151150
  33 H :    0.157448
  34 H :    0.182412
  35 H :    0.144589
  36 H :    0.147762
  37 H :    0.172075
  38 H :    0.157123
  39 H :    0.147803
  40 H :    0.176102
Sum of atomic charges:    0.0000000

LOEWDIN ATOMIC CHARGES
----------------------
   0 C :   -0.404147
   1 C :    0.018749
   2 O :   -0.665810
   3 P :    0.384450
   4 S :   -0.123174
   5 O :   -0.668402
   6 C :    0.027369
   7 C :   -0.400155
   8 S :    0.191435
   9 C :   -0.419666
  10 S :    0.170526
  11 P :    0.375599
  12 S :   -0.138852
  13 O :   -0.681985
  14 C :    0.025882
  15 C :   -0.404418
  16 O :   -0.659813
  17 C :    0.018973
  18 C :   -0.406230
  19 H :    0.158911
  20 H :    0.157804
  21 H :    0.175587
  22 H :    0.181137
  23 H :    0.177479
  24 H :    0.179388
  25 H :    0.174386
  26 H :    0.167813
  27 H :    0.159533
  28 H :    0.157711
  29 H :    0.190944
  30 H :    0.193209
  31 H :    0.175901
  32 H :    0.179128
  33 H :    0.160068
  34 H :    0.168587
  35 H :    0.157271
  36 H :    0.179299
  37 H :    0.179727
  38 H :    0.160747
  39 H :    0.159505
  40 H :    0.165537

  Mayer bond orders larger than 0.100000
B(  0-C ,  1-C ) :   0.9415 B(  0-C , 19-H ) :   0.9607 B(  0-C , 20-H ) :   0.9706
B(  0-C , 21-H ) :   0.9494 B(  1-C ,  2-O ) :   0.8017 B(  1-C , 22-H ) :   0.9591
B(  1-C , 23-H ) :   0.9629 B(  2-O ,  3-P ) :   1.0637 B(  3-P ,  4-S ) :   1.7229
B(  3-P ,  5-O ) :   1.1913 B(  3-P ,  8-S ) :   1.0997 B(  5-O ,  6-C ) :   0.7720
B(  6-C ,  7-C ) :   0.9548 B(  6-C , 24-H ) :   0.9630 B(  6-C , 25-H ) :   0.9665
B(  7-C , 26-H ) :   0.9573 B(  7-C , 27-H ) :   0.9730 B(  7-C , 28-H ) :   0.9653
B(  8-S ,  9-C ) :   0.8964 B(  9-C , 10-S ) :   0.9155 B(  9-C , 29-H ) :   0.9100
B(  9-C , 30-H ) :   0.9041 B( 10-S , 11-P ) :   1.1054 B( 11-P , 12-S ) :   1.7427
B( 11-P , 13-O ) :   1.1499 B( 11-P , 16-O ) :   1.0651 B( 13-O , 14-C ) :   0.7511
B( 14-C , 15-C ) :   0.9358 B( 14-C , 31-H ) :   0.9606 B( 14-C , 32-H ) :   0.9654
B( 15-C , 33-H ) :   0.9721 B( 15-C , 34-H ) :   0.9593 B( 15-C , 35-H ) :   0.9652
B( 16-O , 17-C ) :   0.8194 B( 17-C , 18-C ) :   0.9217 B( 17-C , 36-H ) :   0.9584
B( 17-C , 37-H ) :   0.9658 B( 18-C , 38-H ) :   0.9686 B( 18-C , 39-H ) :   0.9589
B( 18-C , 40-H ) :   0.9615

Dispersion correction           -0.021355957
FINAL SINGLE POINT ENERGY     -2932.463545461516

DIPOLE MOMENT
-------------

Method             : SCF
Type of density    : Electron Density
Multiplicity       :   1
Irrep              :   0
Energy             : -2932.4886607540661316 Eh
Relativity type    :
Basis              : AO
                                X                 Y                 Z
Electronic contribution:     -1.465708579      -5.765415842      -2.909533489
Nuclear contribution   :      1.596920700       6.568652457       3.388973426
                        -----------------------------------------
Total Dipole Moment    :      0.131212121       0.803236615       0.479439937
                        -----------------------------------------
Magnitude (a.u.)       :      0.944599562
Magnitude (Debye)      :      2.400981279

Rotational constants in cm-1:             0.013356             0.004538             0.004241
Rotational constants in MHz :           400.408866           136.050372           127.129080

                             ****ORCA TERMINATED NORMALLY****
TOTAL RUN TIME: 0 days 0 hours 1 minutes 22 seconds 148 msec
