                         Program Version 6.0.0  -   RELEASE  -
|  1> ! r2scan-3c def2/J RI DEFGRID2 scfconv6 printgap
|  2> %output
|  3>     printlevel normal
|  4> end
|  5> %cpcm
|  6>     smd true
|  7>     smdsolvent "water"
|  8> end
|  9> * xyz 0 1
| 10> C 1.0321757167 2.2893078061 1.9154886093
| 11> C 2.3653049626 1.6185518435 2.1765387593
| 12> O 2.9354415372 1.0860917634 0.9702242804
| 13> P 2.4902977646 -0.3133228097 0.350684268
| 14> S 2.1253458667 -1.6900687147 1.705777782
| 15> O 3.6810902639 -0.5855004442 -0.6574105857
| 16> C 5.010322392 -0.9304198847 -0.2030983778
| 17> C 5.1992838121 -2.4346961591 -0.1911752962
| 18> S 1.0039051971 0.0918764952 -1.0919239309
| 19> C -0.0847076735 -1.3242940971 -0.7598205276
| 20> S -1.2208335031 -1.0475085454 0.6273764114
| 21> P -2.4730234666 0.3153400415 -0.3812141107
| 22> S -2.8296003042 -0.0183953409 -2.2848868956
| 23> O -1.7318905105 1.6624534408 -0.0041822173
| 24> C -2.0416344222 2.9247851736 -0.6381285269
| 25> C -1.0829967739 3.1958257584 -1.7807781936
| 26> O -3.7864412058 0.4304637279 0.5093089604
| 27> C -4.934046732 -0.4106365808 0.2985982398
| 28> C -4.6526567384 -1.8546430479 0.6604056467
| 29> H 0.6832733486 2.7624950687 2.8277523605
| 30> H 1.137106218 3.0405700043 1.1368939748
| 31> H 0.2926043892 1.5562413493 1.5965667418
| 32> H 2.2571638491 0.8043033806 2.9014432735
| 33> H 3.1091484898 2.3339131603 2.5310880748
| 34> H 5.6762580176 -0.4509826006 -0.9225712833
| 35> H 5.1747706444 -0.5032473918 0.7894494938
| 36> H 4.5268422737 -2.8939358797 0.5302840471
| 37> H 4.989192959 -2.8435380103 -1.1755489301
| 38> H 6.2237482871 -2.6652389315 0.0831686449
| 39> H 0.5109790613 -2.1971217188 -0.5018248948
| 40> H -0.6638185005 -1.4874159804 -1.6687737895
| 41> H -3.0768847947 2.9091460792 -0.9891512697
| 42> H -1.9355471149 3.6629490224 0.1584156905
| 43> H -0.0560385328 3.1361908625 -1.4311064843
| 44> H -1.2182109899 2.4589327126 -2.5694464679
| 45> H -1.2733678702 4.185842807 -2.1822842328
| 46> H -5.7004717059 0.0252583407 0.9406787335
| 47> H -5.2342735322 -0.3290433706 -0.7511485225
| 48> H -4.251624397 -1.92061498 1.6687249186
| 49> H -5.5721694444 -2.4277139199 0.5982145746
| 50> H -3.9258258642 -2.276665706 -0.0326987432
| 51> *
| 52>
| 53>                          ****END OF INPUT****

CARTESIAN COORDINATES (ANGSTROEM)
---------------------------------
  C      1.032176    2.289308    1.915489
  C      2.365305    1.618552    2.176539
  O      2.935442    1.086092    0.970224
  P      2.490298   -0.313323    0.350684
  S      2.125346   -1.690069    1.705778
  O      3.681090   -0.585500   -0.657411
  C      5.010322   -0.930420   -0.203098
  C      5.199284   -2.434696   -0.191175
  S      1.003905    0.091876   -1.091924
  C     -0.084708   -1.324294   -0.759821
  S     -1.220834   -1.047509    0.627376
  P     -2.473023    0.315340   -0.381214
  S     -2.829600   -0.018395   -2.284887
  O     -1.731891    1.662453   -0.004182
  C     -2.041634    2.924785   -0.638129
  C     -1.082997    3.195826   -1.780778
  O     -3.786441    0.430464    0.509309
  C     -4.934047   -0.410637    0.298598
  C     -4.652657   -1.854643    0.660406
  H      0.683273    2.762495    2.827752
  H      1.137106    3.040570    1.136894
  H      0.292604    1.556241    1.596567
  H      2.257164    0.804303    2.901443
  H      3.109148    2.333913    2.531088
  H      5.676258   -0.450983   -0.922571
  H      5.174771   -0.503247    0.789449
  H      4.526842   -2.893936    0.530284
  H      4.989193   -2.843538   -1.175549
  H      6.223748   -2.665239    0.083169
  H      0.510979   -2.197122   -0.501825
  H     -0.663819   -1.487416   -1.668774
  H     -3.076885    2.909146   -0.989151
  H     -1.935547    3.662949    0.158416
  H     -0.056039    3.136191   -1.431106
  H     -1.218211    2.458933   -2.569446
  H     -1.273368    4.185843   -2.182284
  H     -5.700472    0.025258    0.940679
  H     -5.234274   -0.329043   -0.751149
  H     -4.251624   -1.920615    1.668725
  H     -5.572169   -2.427714    0.598215
  H     -3.925826   -2.276666   -0.032699

 Total Charge           Charge          ....    0
 Multiplicity           Mult            ....    1
 Number of Electrons    NEL             ....  202
 Basis Dimension        Dim             ....  539

ORBITAL ENERGIES
----------------

  NO   OCC          E(Eh)            E(eV)
   0   2.0000     -88.580149     -2410.3884
   1   2.0000     -88.579749     -2410.3775
   2   2.0000     -88.530125     -2409.0272
   3   2.0000     -88.528167     -2408.9739
   4   2.0000     -76.919876     -2093.0962
   5   2.0000     -76.918257     -2093.0522
   6   2.0000     -18.995616      -516.8970
   7   2.0000     -18.994816      -516.8752
   8   2.0000     -18.992408      -516.8097
   9   2.0000     -18.990884      -516.7682
  10   2.0000     -10.105732      -274.9910
  11   2.0000     -10.090254      -274.5698
  12   2.0000     -10.090148      -274.5669
  13   2.0000     -10.089130      -274.5392
  14   2.0000     -10.087878      -274.5051
  15   2.0000     -10.018545      -272.6185
  16   2.0000     -10.016729      -272.5690
  17   2.0000     -10.016173      -272.5539
  18   2.0000     -10.015731      -272.5419
  19   2.0000      -7.874458      -214.2749
  20   2.0000      -7.873957      -214.2613
  21   2.0000      -7.825147      -212.9331
  22   2.0000      -7.823272      -212.8821
  23   2.0000      -6.598373      -179.5508
  24   2.0000      -6.596969      -179.5127
  25   2.0000      -5.821370      -158.4075
  26   2.0000      -5.820834      -158.3930
  27   2.0000      -5.818388      -158.3264
  28   2.0000      -5.817868      -158.3122
  29   2.0000      -5.811453      -158.1377
  30   2.0000      -5.811043      -158.1265
  31   2.0000      -5.772750      -157.0845
  32   2.0000      -5.770787      -157.0311
  33   2.0000      -5.765546      -156.8885
  34   2.0000      -5.765027      -156.8744
  35   2.0000      -5.763660      -156.8372
  36   2.0000      -5.763242      -156.8258
  37   2.0000      -4.743740      -129.0837
  38   2.0000      -4.743227      -129.0698
  39   2.0000      -4.742437      -129.0483
  40   2.0000      -4.742336      -129.0455
  41   2.0000      -4.741765      -129.0300
  42   2.0000      -4.740861      -129.0054
  43   2.0000      -1.052289       -28.6342
  44   2.0000      -1.051856       -28.6224
  45   2.0000      -1.011487       -27.5240
  46   2.0000      -1.011181       -27.5156
  47   2.0000      -0.804449       -21.8902
  48   2.0000      -0.757077       -20.6011
  49   2.0000      -0.742576       -20.2065
  50   2.0000      -0.722468       -19.6594
  51   2.0000      -0.721765       -19.6402
  52   2.0000      -0.710389       -19.3307
  53   2.0000      -0.689750       -18.7690
  54   2.0000      -0.676070       -18.3968
  55   2.0000      -0.632322       -17.2064
  56   2.0000      -0.618537       -16.8312
  57   2.0000      -0.601480       -16.3671
  58   2.0000      -0.601022       -16.3546
  59   2.0000      -0.585158       -15.9230
  60   2.0000      -0.522942       -14.2300
  61   2.0000      -0.520918       -14.1749
  62   2.0000      -0.487824       -13.2744
  63   2.0000      -0.485556       -13.2127
  64   2.0000      -0.480487       -13.0747
  65   2.0000      -0.456956       -12.4344
  66   2.0000      -0.454398       -12.3648
  67   2.0000      -0.451453       -12.2847
  68   2.0000      -0.441901       -12.0247
  69   2.0000      -0.430926       -11.7261
  70   2.0000      -0.420090       -11.4312
  71   2.0000      -0.413212       -11.2441
  72   2.0000      -0.411039       -11.1849
  73   2.0000      -0.395003       -10.7486
  74   2.0000      -0.392573       -10.6824
  75   2.0000      -0.387800       -10.5526
  76   2.0000      -0.380551       -10.3553
  77   2.0000      -0.370096       -10.0708
  78   2.0000      -0.365897        -9.9566
  79   2.0000      -0.360977        -9.8227
  80   2.0000      -0.355595        -9.6762
  81   2.0000      -0.352318        -9.5871
  82   2.0000      -0.348912        -9.4944
  83   2.0000      -0.346698        -9.4341
  84   2.0000      -0.342334        -9.3154
  85   2.0000      -0.328698        -8.9443
  86   2.0000      -0.318003        -8.6533
  87   2.0000      -0.306520        -8.3408
  88   2.0000      -0.304650        -8.2899
  89   2.0000      -0.303676        -8.2634
  90   2.0000      -0.298880        -8.1329
  91   2.0000      -0.291698        -7.9375
  92   2.0000      -0.289989        -7.8910
  93   2.0000      -0.280381        -7.6296
  94   2.0000      -0.278299        -7.5729
  95   2.0000      -0.248522        -6.7626
  96   2.0000      -0.238439        -6.4882
  97   2.0000      -0.232538        -6.3277
  98   2.0000      -0.225873        -6.1463
  99   2.0000      -0.224569        -6.1108
 100   2.0000      -0.220144        -5.9904
 101   0.0000      -0.050986        -1.3874
 102   0.0000      -0.036787        -1.0010
 103   0.0000      -0.008763        -0.2384
 104   0.0000      -0.004066        -0.1106
 105   0.0000       0.010572         0.2877

MULLIKEN ATOMIC CHARGES
-----------------------
   0 C :   -0.486632
   1 C :   -0.153520
   2 O :   -0.310143
   3 P :    0.713005
   4 S :   -0.508927
   5 O :   -0.332336
   6 C :   -0.136610
   7 C :   -0.480842
   8 S :   -0.117382
   9 C :   -0.264848
  10 S :   -0.107227
  11 P :    0.707046
  12 S :   -0.528710
  13 O :   -0.297027
  14 C :   -0.124902
  15 C :   -0.497563
  16 O :   -0.330402
  17 C :   -0.150351
  18 C :   -0.488412
  19 H :    0.170657
  20 H :    0.169926
  21 H :    0.170511
  22 H :    0.173326
  23 H :    0.173193
  24 H :    0.174900
  25 H :    0.169007
  26 H :    0.170012
  27 H :    0.165688
  28 H :    0.169380
  29 H :    0.231243
  30 H :    0.234460
  31 H :    0.169277
  32 H :    0.177654
  33 H :    0.167549
  34 H :    0.173138
  35 H :    0.169456
  36 H :    0.174815
  37 H :    0.177174
  38 H :    0.169884
  39 H :    0.172735
  40 H :    0.171798
Sum of atomic charges:   -0.0000000

LOEWDIN ATOMIC CHARGES
----------------------
   0 C :   -0.407584
   1 C :    0.024073
   2 O :   -0.675274
   3 P :    0.389236
   4 S :   -0.147052
   5 O :   -0.686492
   6 C :    0.032055
   7 C :   -0.404449
   8 S :    0.180301
   9 C :   -0.413428
  10 S :    0.159912
  11 P :    0.381029
  12 S :   -0.165088
  13 O :   -0.693306
  14 C :    0.030789
  15 C :   -0.407959
  16 O :   -0.671376
  17 C :    0.024262
  18 C :   -0.409568
  19 H :    0.168117
  20 H :    0.164017
  21 H :    0.167403
  22 H :    0.181665
  23 H :    0.189397
  24 H :    0.189988
  25 H :    0.181395
  26 H :    0.162440
  27 H :    0.162468
  28 H :    0.167500
  29 H :    0.198683
  30 H :    0.198316
  31 H :    0.181592
  32 H :    0.190215
  33 H :    0.162079
  34 H :    0.162587
  35 H :    0.166316
  36 H :    0.190667
  37 H :    0.181381
  38 H :    0.163668
  39 H :    0.168558
  40 H :    0.161469

  Mayer bond orders larger than 0.100000
B(  0-C ,  1-C ) :   0.9299 B(  0-C , 19-H ) :   0.9552 B(  0-C , 20-H ) :   0.9672
B(  0-C , 21-H ) :   0.9546 B(  1-C ,  2-O ) :   0.7898 B(  1-C , 22-H ) :   0.9569
B(  1-C , 23-H ) :   0.9535 B(  2-O ,  3-P ) :   1.0723 B(  3-P ,  4-S ) :   1.6957
B(  3-P ,  5-O ) :   1.1914 B(  3-P ,  8-S ) :   1.1031 B(  5-O ,  6-C ) :   0.7605
B(  6-C ,  7-C ) :   0.9426 B(  6-C , 24-H ) :   0.9525 B(  6-C , 25-H ) :   0.9587
B(  7-C , 26-H ) :   0.9616 B(  7-C , 27-H ) :   0.9709 B(  7-C , 28-H ) :   0.9598
B(  8-S ,  9-C ) :   0.8883 B(  9-C , 10-S ) :   0.9091 B(  9-C , 29-H ) :   0.9029
B(  9-C , 30-H ) :   0.9006 B( 10-S , 11-P ) :   1.1117 B( 11-P , 12-S ) :   1.7055
B( 11-P , 13-O ) :   1.1599 B( 11-P , 16-O ) :   1.0724 B( 13-O , 14-C ) :   0.7390
B( 14-C , 15-C ) :   0.9227 B( 14-C , 31-H ) :   0.9562 B( 14-C , 32-H ) :   0.9550
B( 15-C , 33-H ) :   0.9700 B( 15-C , 34-H ) :   0.9635 B( 15-C , 35-H ) :   0.9605
B( 16-O , 17-C ) :   0.8078 B( 17-C , 18-C ) :   0.9091 B( 17-C , 36-H ) :   0.9489
B( 17-C , 37-H ) :   0.9642 B( 18-C , 38-H ) :   0.9661 B( 18-C , 39-H ) :   0.9535
B( 18-C , 40-H ) :   0.9627

Dispersion correction           -0.021355957
FINAL SINGLE POINT ENERGY     -2932.470332646062

DIPOLE MOMENT
-------------

Method             : SCF
Type of density    : Electron Density
Multiplicity       :   1
Irrep              :   0
Energy             : -2932.4954479386115054 Eh
Relativity type    :
Basis              : AO
                                X                 Y                 Z
Electronic contribution:     -1.424968371      -5.453467345      -2.719000171
Nuclear contribution   :      1.596920700       6.568652457       3.388973426
                        -----------------------------------------
Total Dipole Moment    :      0.171952328       1.115185112       0.669973255
                        -----------------------------------------
Magnitude (a.u.)       :      1.312276495
Magnitude (Debye)      :      3.335541772

Rotational constants in cm-1:             0.013356             0.004538             0.004241
Rotational constants in MHz :           400.408866           136.050372           127.129080

                             ****ORCA TERMINATED NORMALLY****
TOTAL RUN TIME: 0 days 0 hours 1 minutes 53 seconds 88 msec
