                         Program Version 6.0.0  -   RELEASE  -
|  1> ! pbe def2-sv(p) def2/J RI DEFGRID1 loosescf d4 GCP(DFT/SV(P)) printgap
|  2> %output
|  3>     printlevel normal
|  4> end
|  5> * xyz 0 1
|  6> C 3.9111134071 -2.0792619851 -1.776044917
|  7> C 4.6296078115 -0.9195078207 -1.1147116976
|  8> O 3.9390657013 -0.4596000844 0.0573283439
|  9> P 2.5591019561 0.3144926529 -0.0079272088
| 10> S 2.3217666753 1.4078206686 -1.624581825
| 11> O 2.7484706253 1.0174056643 1.3954063102
| 12> C 1.7616998871 1.7965612035 2.0890483904
| 13> C 1.7405462893 3.2314763504 1.6010251848
| 14> S 1.0564421152 -1.1437262296 0.3648498432
| 15> C 0.1856483346 -1.1149858269 -1.2462896015
| 16> S -1.5405357084 -1.5874544538 -1.0815971413
| 17> P -2.3273249825 0.1580317564 -0.1340857494
| 18> S -1.1448185654 1.7179174468 -0.0589591003
| 19> O -2.8507213516 -0.3382956109 1.2845760754
| 20> C -1.9613128129 -0.6101807861 2.3810560491
| 21> C -2.8103024883 -0.9471792992 3.5897972125
| 22> O -3.6615812871 0.4884347462 -0.8917731023
| 23> C -4.588183623 -0.465255024 -1.4722163948
| 24> C -5.0321460376 -1.5283849531 -0.4923064553
| 25> H 3.6869124116 -2.8505885611 -1.0433739828
| 26> H 2.982613021 -1.7262394718 -2.2232629266
| 27> H 4.5393842579 -2.4950478673 -2.5572086722
| 28> H 4.7331756204 -0.0827172334 -1.8130600516
| 29> H 5.6107200655 -1.2139292798 -0.7398677867
| 30> H 0.7773416943 1.3366880604 1.9629792015
| 31> H 2.0660544213 1.7358930577 3.1356640351
| 32> H 1.072502693 3.8132437008 2.227723859
| 33> H 2.7398597275 3.656211102 1.6394295545
| 34> H 1.3757751089 3.2737631956 0.5760327326
| 35> H 0.6277531453 -1.8567113851 -1.9072261108
| 36> H 0.2691588924 -0.106826204 -1.6609604743
| 37> H -1.3053738695 -1.4428513359 2.1066741119
| 38> H -1.3464579516 0.2787582341 2.5582384091
| 39> H -3.4646810471 -0.1136108227 3.8280240378
| 40> H -3.4161672577 -1.8246169732 3.3847822519
| 41> H -2.161051563 -1.1478523642 4.4354933154
| 42> H -5.4197686745 0.1650420775 -1.7908340126
| 43> H -4.1065810816 -0.9150232578 -2.3437616441
| 44> H -5.4347738667 -1.0682834137 0.4060526163
| 45> H -5.7984956847 -2.1397941406 -0.9586946932
| 46> H -4.1910180462 -2.163529743 -0.220983635
| 47> *
| 48>
| 49>                          ****END OF INPUT****

CARTESIAN COORDINATES (ANGSTROEM)
---------------------------------
  C      3.911113   -2.079262   -1.776045
  C      4.629608   -0.919508   -1.114712
  O      3.939066   -0.459600    0.057328
  P      2.559102    0.314493   -0.007927
  S      2.321767    1.407821   -1.624582
  O      2.748471    1.017406    1.395406
  C      1.761700    1.796561    2.089048
  C      1.740546    3.231476    1.601025
  S      1.056442   -1.143726    0.364850
  C      0.185648   -1.114986   -1.246290
  S     -1.540536   -1.587454   -1.081597
  P     -2.327325    0.158032   -0.134086
  S     -1.144819    1.717917   -0.058959
  O     -2.850721   -0.338296    1.284576
  C     -1.961313   -0.610181    2.381056
  C     -2.810302   -0.947179    3.589797
  O     -3.661581    0.488435   -0.891773
  C     -4.588184   -0.465255   -1.472216
  C     -5.032146   -1.528385   -0.492306
  H      3.686912   -2.850589   -1.043374
  H      2.982613   -1.726239   -2.223263
  H      4.539384   -2.495048   -2.557209
  H      4.733176   -0.082717   -1.813060
  H      5.610720   -1.213929   -0.739868
  H      0.777342    1.336688    1.962979
  H      2.066054    1.735893    3.135664
  H      1.072503    3.813244    2.227724
  H      2.739860    3.656211    1.639430
  H      1.375775    3.273763    0.576033
  H      0.627753   -1.856711   -1.907226
  H      0.269159   -0.106826   -1.660960
  H     -1.305374   -1.442851    2.106674
  H     -1.346458    0.278758    2.558238
  H     -3.464681   -0.113611    3.828024
  H     -3.416167   -1.824617    3.384782
  H     -2.161052   -1.147852    4.435493
  H     -5.419769    0.165042   -1.790834
  H     -4.106581   -0.915023   -2.343762
  H     -5.434774   -1.068283    0.406053
  H     -5.798496   -2.139794   -0.958695
  H     -4.191018   -2.163530   -0.220984

 Total Charge           Charge          ....    0
 Multiplicity           Mult            ....    1
 Number of Electrons    NEL             ....  202
 Basis Dimension        Dim             ....  334

ORBITAL ENERGIES
----------------

  NO   OCC          E(Eh)            E(eV)
   0   2.0000     -88.050881     -2395.9863
   1   2.0000     -88.041341     -2395.7267
   2   2.0000     -87.985832     -2394.2162
   3   2.0000     -87.983381     -2394.1495
   4   2.0000     -76.427945     -2079.7101
   5   2.0000     -76.423981     -2079.6022
   6   2.0000     -18.796988      -511.4921
   7   2.0000     -18.792362      -511.3662
   8   2.0000     -18.786284      -511.2008
   9   2.0000     -18.782525      -511.0985
  10   2.0000      -9.963330      -271.1160
  11   2.0000      -9.955926      -270.9145
  12   2.0000      -9.953269      -270.8422
  13   2.0000      -9.948914      -270.7237
  14   2.0000      -9.945544      -270.6320
  15   2.0000      -9.894689      -269.2482
  16   2.0000      -9.890067      -269.1224
  17   2.0000      -9.885139      -268.9883
  18   2.0000      -9.871921      -268.6286
  19   2.0000      -7.695696      -209.4105
  20   2.0000      -7.685962      -209.1456
  21   2.0000      -7.630642      -207.6403
  22   2.0000      -7.628315      -207.5770
  23   2.0000      -6.425472      -174.8460
  24   2.0000      -6.421050      -174.7257
  25   2.0000      -5.723600      -155.7471
  26   2.0000      -5.719931      -155.6472
  27   2.0000      -5.713818      -155.4809
  28   2.0000      -5.712993      -155.4584
  29   2.0000      -5.710550      -155.3920
  30   2.0000      -5.702971      -155.1857
  31   2.0000      -5.659502      -154.0029
  32   2.0000      -5.657367      -153.9448
  33   2.0000      -5.651197      -153.7769
  34   2.0000      -5.650948      -153.7701
  35   2.0000      -5.648793      -153.7115
  36   2.0000      -5.648450      -153.7021
  37   2.0000      -4.648141      -126.4824
  38   2.0000      -4.647336      -126.4604
  39   2.0000      -4.645729      -126.4167
  40   2.0000      -4.643333      -126.3515
  41   2.0000      -4.643020      -126.3430
  42   2.0000      -4.641626      -126.3051
  43   2.0000      -0.990213       -26.9451
  44   2.0000      -0.984375       -26.7862
  45   2.0000      -0.948411       -25.8076
  46   2.0000      -0.939148       -25.5555
  47   2.0000      -0.763270       -20.7696
  48   2.0000      -0.723356       -19.6835
  49   2.0000      -0.712816       -19.3967
  50   2.0000      -0.696805       -18.9610
  51   2.0000      -0.680696       -18.5227
  52   2.0000      -0.675509       -18.3815
  53   2.0000      -0.650683       -17.7060
  54   2.0000      -0.635207       -17.2849
  55   2.0000      -0.599263       -16.3068
  56   2.0000      -0.595145       -16.1947
  57   2.0000      -0.571793       -15.5593
  58   2.0000      -0.568083       -15.4583
  59   2.0000      -0.563058       -15.3216
  60   2.0000      -0.506279       -13.7766
  61   2.0000      -0.493346       -13.4246
  62   2.0000      -0.482470       -13.1287
  63   2.0000      -0.465362       -12.6631
  64   2.0000      -0.457267       -12.4429
  65   2.0000      -0.445207       -12.1147
  66   2.0000      -0.440068       -11.9749
  67   2.0000      -0.436151       -11.8683
  68   2.0000      -0.428968       -11.6728
  69   2.0000      -0.417085       -11.3495
  70   2.0000      -0.413954       -11.2643
  71   2.0000      -0.402394       -10.9497
  72   2.0000      -0.398855       -10.8534
  73   2.0000      -0.390507       -10.6262
  74   2.0000      -0.385008       -10.4766
  75   2.0000      -0.366832        -9.9820
  76   2.0000      -0.364562        -9.9202
  77   2.0000      -0.360297        -9.8042
  78   2.0000      -0.357087        -9.7168
  79   2.0000      -0.351354        -9.5608
  80   2.0000      -0.350266        -9.5312
  81   2.0000      -0.346333        -9.4242
  82   2.0000      -0.341095        -9.2817
  83   2.0000      -0.336863        -9.1665
  84   2.0000      -0.327035        -8.8991
  85   2.0000      -0.316949        -8.6246
  86   2.0000      -0.312357        -8.4997
  87   2.0000      -0.299711        -8.1556
  88   2.0000      -0.294230        -8.0064
  89   2.0000      -0.292797        -7.9674
  90   2.0000      -0.285071        -7.7572
  91   2.0000      -0.280280        -7.6268
  92   2.0000      -0.265831        -7.2336
  93   2.0000      -0.262951        -7.1552
  94   2.0000      -0.256607        -6.9826
  95   2.0000      -0.240217        -6.5366
  96   2.0000      -0.222532        -6.0554
  97   2.0000      -0.211068        -5.7434
  98   2.0000      -0.201797        -5.4912
  99   2.0000      -0.195612        -5.3229
 100   2.0000      -0.192433        -5.2364
 101   0.0000      -0.047042        -1.2801
 102   0.0000      -0.035658        -0.9703
 103   0.0000      -0.014589        -0.3970
 104   0.0000       0.005326         0.1449
 105   0.0000       0.014161         0.3853

MULLIKEN ATOMIC CHARGES
-----------------------
   0 C :   -0.325301
   1 C :    0.002215
   2 O :   -0.357871
   3 P :    0.613225
   4 S :   -0.317004
   5 O :   -0.355119
   6 C :   -0.044391
   7 C :   -0.301340
   8 S :   -0.120752
   9 C :   -0.348675
  10 S :   -0.133994
  11 P :    0.601576
  12 S :   -0.305373
  13 O :   -0.375545
  14 C :   -0.040569
  15 C :   -0.272265
  16 O :   -0.355804
  17 C :   -0.006609
  18 C :   -0.318471
  19 H :    0.120502
  20 H :    0.120128
  21 H :    0.112301
  22 H :    0.112487
  23 H :    0.105858
  24 H :    0.140824
  25 H :    0.100336
  26 H :    0.106202
  27 H :    0.113223
  28 H :    0.141124
  29 H :    0.189811
  30 H :    0.215107
  31 H :    0.108162
  32 H :    0.126154
  33 H :    0.118536
  34 H :    0.114283
  35 H :    0.111757
  36 H :    0.116363
  37 H :    0.116497
  38 H :    0.128206
  39 H :    0.117838
  40 H :    0.126364
Sum of atomic charges:    0.0000000

LOEWDIN ATOMIC CHARGES
----------------------
   0 C :   -0.368347
   1 C :   -0.118342
   2 O :   -0.237611
   3 P :    0.567349
   4 S :   -0.296762
   5 O :   -0.228969
   6 C :   -0.122568
   7 C :   -0.362713
   8 S :    0.060464
   9 C :   -0.480088
  10 S :    0.067545
  11 P :    0.565612
  12 S :   -0.290001
  13 O :   -0.246426
  14 C :   -0.123547
  15 C :   -0.349990
  16 O :   -0.231801
  17 C :   -0.111969
  18 C :   -0.367837
  19 H :    0.126017
  20 H :    0.118056
  21 H :    0.130607
  22 H :    0.110040
  23 H :    0.119446
  24 H :    0.101812
  25 H :    0.115967
  26 H :    0.128880
  27 H :    0.125366
  28 H :    0.124840
  29 H :    0.131625
  30 H :    0.125395
  31 H :    0.102306
  32 H :    0.109484
  33 H :    0.128187
  34 H :    0.125816
  35 H :    0.130978
  36 H :    0.125730
  37 H :    0.112619
  38 H :    0.131380
  39 H :    0.133583
  40 H :    0.117865

  Mayer bond orders larger than 0.100000
B(  0-C ,  1-C ) :   1.1595 B(  0-C , 19-H ) :   0.9449 B(  0-C , 20-H ) :   0.9317
B(  0-C , 21-H ) :   0.9379 B(  1-C ,  2-O ) :   0.9232 B(  1-C , 22-H ) :   0.9146
B(  1-C , 23-H ) :   0.9341 B(  2-O ,  3-P ) :   1.1148 B(  3-P ,  4-S ) :   1.6101
B(  3-P ,  5-O ) :   1.1432 B(  3-P ,  8-S ) :   0.9414 B(  4-S ,  8-S ) :   0.1247
B(  5-O ,  6-C ) :   0.9076 B(  6-C ,  7-C ) :   1.1714 B(  6-C , 24-H ) :   0.8917
B(  6-C , 25-H ) :   0.9349 B(  7-C , 26-H ) :   0.9389 B(  7-C , 27-H ) :   0.9467
B(  7-C , 28-H ) :   0.9325 B(  8-S ,  9-C ) :   0.9874 B(  9-C , 10-S ) :   1.0128
B(  9-C , 29-H ) :   0.8942 B(  9-C , 30-H ) :   0.8470 B( 10-S , 11-P ) :   0.9234
B( 10-S , 12-S ) :   0.1116 B( 11-P , 12-S ) :   1.6559 B( 11-P , 13-O ) :   1.0810
B( 11-P , 16-O ) :   1.1584 B( 13-O , 14-C ) :   0.9068 B( 14-C , 15-C ) :   1.1560
B( 14-C , 31-H ) :   0.9177 B( 14-C , 32-H ) :   0.9102 B( 15-C , 33-H ) :   0.9499
B( 15-C , 34-H ) :   0.9509 B( 15-C , 35-H ) :   0.9420 B( 16-O , 17-C ) :   0.8979
B( 17-C , 18-C ) :   1.1686 B( 17-C , 36-H ) :   0.9339 B( 17-C , 37-H ) :   0.9239
B( 18-C , 38-H ) :   0.9415 B( 18-C , 39-H ) :   0.9340 B( 18-C , 40-H ) :   0.9372

Dispersion correction           -0.065425916
FINAL SINGLE POINT ENERGY     -2929.517570379508

DIPOLE MOMENT
-------------

Method             : SCF
Type of density    : Electron Density
Multiplicity       :   1
Irrep              :   0
Energy             : -2929.6363901466884272 Eh
Relativity type    :
Basis              : AO
                                X                 Y                 Z
Electronic contribution:      5.244099025       5.447851227      -8.211654716
Nuclear contribution   :     -6.006618452      -6.885288205       8.668995118
                        -----------------------------------------
Total Dipole Moment    :     -0.762519427      -1.437436979       0.457340402
                        -----------------------------------------
Magnitude (a.u.)       :      1.690213355
Magnitude (Debye)      :      4.296180926

Rotational constants in cm-1:             0.012381             0.004884             0.004462
Rotational constants in MHz :           371.165237           146.405574           133.763966

                             ****ORCA TERMINATED NORMALLY****
TOTAL RUN TIME: 0 days 0 hours 0 minutes 20 seconds 774 msec
