                         Program Version 6.0.1  -  RELEASE   -
|  1> ! pbe def2-sv(p) def2/J RI DEFGRID1 loosescf d4 GCP(DFT/SV(P)) printgap
|  2> %output
|  3>     printlevel normal
|  4> end
|  5> * xyz 0 1
|  6> C 4.0551160817 -1.7635486817 1.3595214336
|  7> C 2.8136102184 -2.477077532 0.849768032
|  8> O 2.3898225635 -1.923119189 -0.4102919798
|  9> C 1.5915809462 -0.8888224953 -0.4026351942
| 10> O 1.1775031553 -0.3274728252 0.5996137861
| 11> C 1.2456391789 -0.4059733062 -1.793078269
| 12> C 0.4492069253 0.8859923939 -1.6778277893
| 13> H 0.43753344 1.4111074403 -2.6375568848
| 14> C 1.1075009186 1.8037391213 -0.6522800525
| 15> O 2.3084253176 1.9660057118 -0.6301347405
| 16> O 0.2472158573 2.421682358 0.1234042094
| 17> C 0.7659858265 3.3692028044 1.0789317389
| 18> C 0.9785369286 4.7286736128 0.4333588372
| 19> S -1.325000752 0.6386279896 -1.3407368596
| 20> P -1.5701787628 -0.7914326515 0.213404191
| 21> S -0.8384074736 -2.6008606275 0.013483344
| 22> O -1.3245998402 -0.1323205822 1.628128783
| 23> C -2.0433939885 1.041643178 2.0537453729
| 24> O -3.1737413323 -0.811089703 0.2037430375
| 25> C -3.9130634523 -1.4469631169 -0.8434910293
| 26> H 4.8552258273 -1.8396383277 0.6286638382
| 27> H 3.8356603385 -0.7119183637 1.533600804
| 28> H 4.3729828922 -2.2180912684 2.2918232873
| 29> H 1.986747298 -2.3913222937 1.5614180481
| 30> H 3.0112281277 -3.5263608199 0.6310168554
| 31> H 0.6897474975 -1.1825304266 -2.3209860768
| 32> H 2.180762066 -0.2270612888 -2.3264532167
| 33> H 0.0084635142 3.4133413088 1.8611435139
| 34> H 1.7026616779 2.97299288 1.4806658715
| 35> H 0.0533273928 5.0774551706 -0.0169103743
| 36> H 1.298258393 5.4357652331 1.1915185339
| 37> H 1.7461827776 4.663011086 -0.3341722659
| 38> H -1.5608787856 1.3452955472 2.9792528507
| 39> H -3.0883348343 0.788728248 2.223762685
| 40> H -1.9643946602 1.8224303266 1.2975074669
| 41> H -3.9109631196 -0.816771092 -1.7317415307
| 42> H -4.922464107 -1.5671013338 -0.4582916248
| 43> H -3.4750950887 -2.4197060733 -1.0731390957
| 44> *
| 45>
| 46>                          ****END OF INPUT****

CARTESIAN COORDINATES (ANGSTROEM)
---------------------------------
  C      4.055116   -1.763549    1.359521
  C      2.813610   -2.477078    0.849768
  O      2.389823   -1.923119   -0.410292
  C      1.591581   -0.888822   -0.402635
  O      1.177503   -0.327473    0.599614
  C      1.245639   -0.405973   -1.793078
  C      0.449207    0.885992   -1.677828
  H      0.437533    1.411107   -2.637557
  C      1.107501    1.803739   -0.652280
  O      2.308425    1.966006   -0.630135
  O      0.247216    2.421682    0.123404
  C      0.765986    3.369203    1.078932
  C      0.978537    4.728674    0.433359
  S     -1.325001    0.638628   -1.340737
  P     -1.570179   -0.791433    0.213404
  S     -0.838407   -2.600861    0.013483
  O     -1.324600   -0.132321    1.628129
  C     -2.043394    1.041643    2.053745
  O     -3.173741   -0.811090    0.203743
  C     -3.913063   -1.446963   -0.843491
  H      4.855226   -1.839638    0.628664
  H      3.835660   -0.711918    1.533601
  H      4.372983   -2.218091    2.291823
  H      1.986747   -2.391322    1.561418
  H      3.011228   -3.526361    0.631017
  H      0.689747   -1.182530   -2.320986
  H      2.180762   -0.227061   -2.326453
  H      0.008464    3.413341    1.861144
  H      1.702662    2.972993    1.480666
  H      0.053327    5.077455   -0.016910
  H      1.298258    5.435765    1.191519
  H      1.746183    4.663011   -0.334172
  H     -1.560879    1.345296    2.979253
  H     -3.088335    0.788728    2.223763
  H     -1.964395    1.822430    1.297507
  H     -3.910963   -0.816771   -1.731742
  H     -4.922464   -1.567101   -0.458292
  H     -3.475095   -2.419706   -1.073139

 Total Charge           Charge          ....    0
 Multiplicity           Mult            ....    1
 Number of Electrons    NEL             ....  174
 Basis Dimension        Dim             ....  316

ORBITAL ENERGIES
----------------

  NO   OCC          E(Eh)            E(eV)
   0   2.0000     -88.034979     -2395.5536
   1   2.0000     -87.975176     -2393.9262
   2   2.0000     -76.422129     -2079.5519
   3   2.0000     -18.805893      -511.7344
   4   2.0000     -18.800339      -511.5832
   5   2.0000     -18.787383      -511.2307
   6   2.0000     -18.785366      -511.1758
   7   2.0000     -18.738609      -509.9035
   8   2.0000     -18.733861      -509.7743
   9   2.0000     -10.014943      -272.5204
  10   2.0000     -10.011333      -272.4222
  11   2.0000      -9.949709      -270.7453
  12   2.0000      -9.949376      -270.7363
  13   2.0000      -9.942217      -270.5415
  14   2.0000      -9.940027      -270.4819
  15   2.0000      -9.940003      -270.4812
  16   2.0000      -9.908797      -269.6321
  17   2.0000      -9.888588      -269.0822
  18   2.0000      -9.880512      -268.8624
  19   2.0000      -7.679704      -208.9754
  20   2.0000      -7.620443      -207.3628
  21   2.0000      -6.418641      -174.6601
  22   2.0000      -5.707831      -155.3180
  23   2.0000      -5.703982      -155.2132
  24   2.0000      -5.696661      -155.0140
  25   2.0000      -5.649648      -153.7348
  26   2.0000      -5.640734      -153.4922
  27   2.0000      -5.640539      -153.4869
  28   2.0000      -4.641720      -126.3076
  29   2.0000      -4.640604      -126.2772
  30   2.0000      -4.638701      -126.2255
  31   2.0000      -1.014716       -27.6118
  32   2.0000      -1.008806       -27.4510
  33   2.0000      -0.981354       -26.7040
  34   2.0000      -0.936097       -25.4725
  35   2.0000      -0.920042       -25.0356
  36   2.0000      -0.911941       -24.8152
  37   2.0000      -0.761363       -20.7177
  38   2.0000      -0.709278       -19.3004
  39   2.0000      -0.701173       -19.0799
  40   2.0000      -0.689775       -18.7697
  41   2.0000      -0.654477       -17.8092
  42   2.0000      -0.632953       -17.2235
  43   2.0000      -0.622177       -16.9303
  44   2.0000      -0.610167       -16.6035
  45   2.0000      -0.596718       -16.2375
  46   2.0000      -0.564603       -15.3636
  47   2.0000      -0.512877       -13.9561
  48   2.0000      -0.502819       -13.6824
  49   2.0000      -0.492129       -13.3915
  50   2.0000      -0.481070       -13.0906
  51   2.0000      -0.471271       -12.8239
  52   2.0000      -0.449583       -12.2338
  53   2.0000      -0.436719       -11.8837
  54   2.0000      -0.435673       -11.8553
  55   2.0000      -0.431218       -11.7340
  56   2.0000      -0.428219       -11.6524
  57   2.0000      -0.421531       -11.4704
  58   2.0000      -0.411325       -11.1927
  59   2.0000      -0.408031       -11.1031
  60   2.0000      -0.395824       -10.7709
  61   2.0000      -0.393703       -10.7132
  62   2.0000      -0.391473       -10.6525
  63   2.0000      -0.384199       -10.4546
  64   2.0000      -0.375253       -10.2111
  65   2.0000      -0.371430       -10.1071
  66   2.0000      -0.358175        -9.7465
  67   2.0000      -0.350629        -9.5411
  68   2.0000      -0.339832        -9.2473
  69   2.0000      -0.331899        -9.0314
  70   2.0000      -0.331183        -9.0120
  71   2.0000      -0.325333        -8.8528
  72   2.0000      -0.318278        -8.6608
  73   2.0000      -0.314624        -8.5614
  74   2.0000      -0.298246        -8.1157
  75   2.0000      -0.296367        -8.0646
  76   2.0000      -0.291481        -7.9316
  77   2.0000      -0.288215        -7.8427
  78   2.0000      -0.264526        -7.1981
  79   2.0000      -0.260450        -7.0872
  80   2.0000      -0.256928        -6.9914
  81   2.0000      -0.250396        -6.8136
  82   2.0000      -0.242502        -6.5988
  83   2.0000      -0.227418        -6.1884
  84   2.0000      -0.211817        -5.7638
  85   2.0000      -0.192549        -5.2395
  86   2.0000      -0.188351        -5.1253
  87   0.0000      -0.037884        -1.0309
  88   0.0000      -0.022416        -0.6100
  89   0.0000      -0.016458        -0.4479
  90   0.0000      -0.004430        -0.1206
  91   0.0000       0.029607         0.8057

MULLIKEN ATOMIC CHARGES
-----------------------
   0 C :   -0.303063
   1 C :   -0.012931
   2 O :   -0.209887
   3 C :    0.133716
   4 O :   -0.222643
   5 C :   -0.077137
   6 C :   -0.287545
   7 H :    0.145336
   8 C :    0.206747
   9 O :   -0.212480
  10 O :   -0.214362
  11 C :   -0.010210
  12 C :   -0.304922
  13 S :   -0.102698
  14 P :    0.625325
  15 S :   -0.332059
  16 O :   -0.352200
  17 C :   -0.116350
  18 O :   -0.397683
  19 C :   -0.102267
  20 H :    0.112278
  21 H :    0.129027
  22 H :    0.111374
  23 H :    0.119913
  24 H :    0.103285
  25 H :    0.138422
  26 H :    0.127426
  27 H :    0.097173
  28 H :    0.115368
  29 H :    0.112826
  30 H :    0.113267
  31 H :    0.128088
  32 H :    0.127301
  33 H :    0.121858
  34 H :    0.132835
  35 H :    0.116459
  36 H :    0.121854
  37 H :    0.118559
Sum of atomic charges:   -0.0000000

LOEWDIN ATOMIC CHARGES
----------------------
   0 C :   -0.356092
   1 C :   -0.108880
   2 O :   -0.035623
   3 C :    0.027591
   4 O :   -0.170031
   5 C :   -0.253042
   6 C :   -0.262727
   7 H :    0.151823
   8 C :    0.016831
   9 O :   -0.174903
  10 O :   -0.049244
  11 C :   -0.105932
  12 C :   -0.356694
  13 S :    0.094391
  14 P :    0.578116
  15 S :   -0.311298
  16 O :   -0.229048
  17 C :   -0.211606
  18 O :   -0.262675
  19 C :   -0.218069
  20 H :    0.124081
  21 H :    0.131724
  22 H :    0.129862
  23 H :    0.122686
  24 H :    0.118703
  25 H :    0.147164
  26 H :    0.151305
  27 H :    0.113449
  28 H :    0.123709
  29 H :    0.124407
  30 H :    0.130894
  31 H :    0.130715
  32 H :    0.122188
  33 H :    0.114969
  34 H :    0.111496
  35 H :    0.108789
  36 H :    0.120812
  37 H :    0.110162

  Mayer bond orders larger than 0.100000
B(  0-C ,  1-C ) :   1.1701 B(  0-C , 20-H ) :   0.9482 B(  0-C , 21-H ) :   0.9447
B(  0-C , 22-H ) :   0.9447 B(  1-C ,  2-O ) :   0.9059 B(  1-C , 23-H ) :   0.9116
B(  1-C , 24-H ) :   0.9382 B(  2-O ,  3-C ) :   1.2827 B(  3-C ,  4-O ) :   1.8903
B(  3-C ,  5-C ) :   1.0086 B(  5-C ,  6-C ) :   1.0397 B(  5-C , 25-H ) :   0.8852
B(  5-C , 26-H ) :   0.8746 B(  6-C ,  7-H ) :   0.8673 B(  6-C ,  8-C ) :   0.8687
B(  6-C , 13-S ) :   1.0284 B(  8-C ,  9-O ) :   2.0341 B(  8-C , 10-O ) :   1.2676
B( 10-O , 11-C ) :   0.9129 B( 11-C , 12-C ) :   1.1753 B( 11-C , 27-H ) :   0.9323
B( 11-C , 28-H ) :   0.9160 B( 12-C , 29-H ) :   0.9483 B( 12-C , 30-H ) :   0.9443
B( 12-C , 31-H ) :   0.9446 B( 13-S , 14-P ) :   0.9808 B( 13-S , 15-S ) :   0.1156
B( 14-P , 15-S ) :   1.6067 B( 14-P , 16-O ) :   1.1303 B( 14-P , 18-O ) :   1.0405
B( 16-O , 17-C ) :   0.9218 B( 17-C , 32-H ) :   0.9562 B( 17-C , 33-H ) :   0.9450
B( 17-C , 34-H ) :   0.9283 B( 18-O , 19-C ) :   0.9347 B( 19-C , 35-H ) :   0.9493
B( 19-C , 36-H ) :   0.9585 B( 19-C , 37-H ) :   0.9306

Dispersion correction           -0.054947847
FINAL SINGLE POINT ENERGY     -1979.011406872724

DIPOLE MOMENT
-------------

Method             : SCF
Type of density    : Electron Density
Multiplicity       :   1
Irrep              :   0
Energy             : -1979.1410889177909667 Eh
Relativity type    :
Basis              : AO
                                X                 Y                 Z
Electronic contribution:     -8.664691766      -9.227046230      -6.202512436
Nuclear contribution   :      8.297635184      10.191140481       6.232028560
                        -----------------------------------------
Total Dipole Moment    :     -0.367056582       0.964094251       0.029516125
                        -----------------------------------------
Magnitude (a.u.)       :      1.032026870
Magnitude (Debye)      :      2.623203834

Rotational constants in cm-1:             0.010986             0.009776             0.006626
Rotational constants in MHz :           329.347949           293.077223           198.650375

                             ****ORCA TERMINATED NORMALLY****
TOTAL RUN TIME: 0 days 0 hours 0 minutes 49 seconds 933 msec
