                         Program Version 6.0.0  -   RELEASE  -
|  1> ! pbe def2-sv(p) def2/J RI DEFGRID1 loosescf d4 GCP(DFT/SV(P)) printgap
|  2> %output
|  3>     printlevel normal
|  4> end
|  5> * xyz 0 1
|  6> C 2.1115660497 2.3165393335 1.3029827677
|  7> C 1.5859333264 1.0590593175 1.9685601407
|  8> O 2.3828161918 -0.082588999 1.6009851496
|  9> P 1.9488771647 -1.159717511 0.5118329813
| 10> S 0.1869600124 -1.9630034572 0.7970768342
| 11> O 3.0966529446 -2.2244762044 0.6178097971
| 12> C 4.4952299888 -1.94512298 0.3457315757
| 13> C 5.2263054382 -1.5290361742 1.6050054672
| 14> S 2.2591217673 -0.2546266429 -1.4026677227
| 15> C 0.5495629518 -0.0971878701 -1.9444040937
| 16> S -0.2951942418 1.3399798154 -1.1947708787
| 17> P -2.1335273093 0.467949313 -0.6445430859
| 18> S -2.6390163769 -1.2141327879 -1.497740735
| 19> O -3.2100244781 1.5894665022 -0.9667760759
| 20> C -3.1705595124 2.9227454574 -0.398242893
| 21> C -2.6663129991 3.9271232656 -1.4156532318
| 22> O -1.9666287988 0.4693617141 0.9498256734
| 23> C -2.7377741697 -0.4071660933 1.788504197
| 24> C -4.203339478 -0.0249992295 1.8057076931
| 25> H 1.5489908668 3.1699443668 1.6668781748
| 26> H 3.1623728028 2.450610517 1.5427300666
| 27> H 1.9989006291 2.2590000294 0.2228794798
| 28> H 0.5396732808 0.8705502782 1.7064748209
| 29> H 1.6743698394 1.1206025794 3.0551358992
| 30> H 4.8807811795 -2.8882267983 -0.0453617251
| 31> H 4.5560436475 -1.1729496493 -0.4257606189
| 32> H 5.113827611 -2.2925910688 2.3699137821
| 33> H 6.2799637964 -1.4039195468 1.3757891163
| 34> H 4.8271204623 -0.5928257577 1.9841211503
| 35> H -0.0133790876 -0.9997914929 -1.6929098445
| 36> H 0.588352062 0.0556534242 -3.0198700144
| 37> H -4.2060463014 3.1309184591 -0.1219305712
| 38> H -2.5427921179 2.9120622306 0.496250122
| 39> H -2.7566097678 4.9253028913 -0.9989432318
| 40> H -1.6246923851 3.735784726 -1.6611016777
| 41> H -3.2599016613 3.8627736034 -2.3232920136
| 42> H -2.6023806088 -1.4333798856 1.4312174167
| 43> H -2.2760370566 -0.3067280089 2.7719680347
| 44> H -4.7379107726 -0.6898804909 2.4767690264
| 45> H -4.3237856704 1.0016265594 2.1421892818
| 46> H -4.6208761258 -0.1245295574 0.8037398902
| 47> *
| 48>
| 49>                          ****END OF INPUT****

CARTESIAN COORDINATES (ANGSTROEM)
---------------------------------
  C      2.111566    2.316539    1.302983
  C      1.585933    1.059059    1.968560
  O      2.382816   -0.082589    1.600985
  P      1.948877   -1.159718    0.511833
  S      0.186960   -1.963003    0.797077
  O      3.096653   -2.224476    0.617810
  C      4.495230   -1.945123    0.345732
  C      5.226305   -1.529036    1.605005
  S      2.259122   -0.254627   -1.402668
  C      0.549563   -0.097188   -1.944404
  S     -0.295194    1.339980   -1.194771
  P     -2.133527    0.467949   -0.644543
  S     -2.639016   -1.214133   -1.497741
  O     -3.210024    1.589467   -0.966776
  C     -3.170560    2.922745   -0.398243
  C     -2.666313    3.927123   -1.415653
  O     -1.966629    0.469362    0.949826
  C     -2.737774   -0.407166    1.788504
  C     -4.203339   -0.024999    1.805708
  H      1.548991    3.169944    1.666878
  H      3.162373    2.450611    1.542730
  H      1.998901    2.259000    0.222879
  H      0.539673    0.870550    1.706475
  H      1.674370    1.120603    3.055136
  H      4.880781   -2.888227   -0.045362
  H      4.556044   -1.172950   -0.425761
  H      5.113828   -2.292591    2.369914
  H      6.279964   -1.403920    1.375789
  H      4.827120   -0.592826    1.984121
  H     -0.013379   -0.999791   -1.692910
  H      0.588352    0.055653   -3.019870
  H     -4.206046    3.130918   -0.121931
  H     -2.542792    2.912062    0.496250
  H     -2.756610    4.925303   -0.998943
  H     -1.624692    3.735785   -1.661102
  H     -3.259902    3.862774   -2.323292
  H     -2.602381   -1.433380    1.431217
  H     -2.276037   -0.306728    2.771968
  H     -4.737911   -0.689880    2.476769
  H     -4.323786    1.001627    2.142189
  H     -4.620876   -0.124530    0.803740

 Total Charge           Charge          ....    0
 Multiplicity           Mult            ....    1
 Number of Electrons    NEL             ....  202
 Basis Dimension        Dim             ....  334

ORBITAL ENERGIES
----------------

  NO   OCC          E(Eh)            E(eV)
   0   2.0000     -88.045267     -2395.8335
   1   2.0000     -88.041872     -2395.7411
   2   2.0000     -87.982667     -2394.1301
   3   2.0000     -87.981448     -2394.0969
   4   2.0000     -76.424679     -2079.6212
   5   2.0000     -76.423312     -2079.5840
   6   2.0000     -18.793326      -511.3924
   7   2.0000     -18.790215      -511.3077
   8   2.0000     -18.788480      -511.2605
   9   2.0000     -18.787715      -511.2397
  10   2.0000      -9.961715      -271.0720
  11   2.0000      -9.959096      -271.0008
  12   2.0000      -9.955094      -270.8919
  13   2.0000      -9.948757      -270.7194
  14   2.0000      -9.945723      -270.6369
  15   2.0000      -9.888805      -269.0881
  16   2.0000      -9.888766      -269.0870
  17   2.0000      -9.882560      -268.9181
  18   2.0000      -9.881967      -268.9020
  19   2.0000      -7.690205      -209.2611
  20   2.0000      -7.686895      -209.1711
  21   2.0000      -7.627894      -207.5655
  22   2.0000      -7.626337      -207.5232
  23   2.0000      -6.422298      -174.7596
  24   2.0000      -6.421146      -174.7283
  25   2.0000      -5.718108      -155.5976
  26   2.0000      -5.714722      -155.5055
  27   2.0000      -5.714545      -155.5007
  28   2.0000      -5.711531      -155.4187
  29   2.0000      -5.707354      -155.3050
  30   2.0000      -5.703720      -155.2061
  31   2.0000      -5.657073      -153.9368
  32   2.0000      -5.655363      -153.8903
  33   2.0000      -5.648605      -153.7063
  34   2.0000      -5.647648      -153.6803
  35   2.0000      -5.646862      -153.6589
  36   2.0000      -5.646457      -153.6479
  37   2.0000      -4.645014      -126.3972
  38   2.0000      -4.644091      -126.3721
  39   2.0000      -4.643906      -126.3671
  40   2.0000      -4.642577      -126.3309
  41   2.0000      -4.642572      -126.3308
  42   2.0000      -4.641774      -126.3091
  43   2.0000      -0.987714       -26.8771
  44   2.0000      -0.982583       -26.7374
  45   2.0000      -0.944108       -25.6905
  46   2.0000      -0.940721       -25.5983
  47   2.0000      -0.762032       -20.7359
  48   2.0000      -0.722361       -19.6564
  49   2.0000      -0.712324       -19.3833
  50   2.0000      -0.691699       -18.8221
  51   2.0000      -0.689326       -18.7575
  52   2.0000      -0.674350       -18.3500
  53   2.0000      -0.648485       -17.6462
  54   2.0000      -0.634785       -17.2734
  55   2.0000      -0.595933       -16.2162
  56   2.0000      -0.587781       -15.9943
  57   2.0000      -0.577467       -15.7137
  58   2.0000      -0.574830       -15.6419
  59   2.0000      -0.559950       -15.2370
  60   2.0000      -0.504470       -13.7273
  61   2.0000      -0.497133       -13.5277
  62   2.0000      -0.480131       -13.0650
  63   2.0000      -0.475381       -12.9358
  64   2.0000      -0.452221       -12.3056
  65   2.0000      -0.447773       -12.1845
  66   2.0000      -0.447129       -12.1670
  67   2.0000      -0.435362       -11.8468
  68   2.0000      -0.429157       -11.6780
  69   2.0000      -0.415744       -11.3130
  70   2.0000      -0.405406       -11.0317
  71   2.0000      -0.398831       -10.8528
  72   2.0000      -0.394841       -10.7442
  73   2.0000      -0.385792       -10.4979
  74   2.0000      -0.382099       -10.3974
  75   2.0000      -0.369718       -10.0605
  76   2.0000      -0.365854        -9.9554
  77   2.0000      -0.357988        -9.7413
  78   2.0000      -0.355441        -9.6720
  79   2.0000      -0.352275        -9.5859
  80   2.0000      -0.350379        -9.5343
  81   2.0000      -0.346692        -9.4340
  82   2.0000      -0.343031        -9.3344
  83   2.0000      -0.339445        -9.2368
  84   2.0000      -0.333636        -9.0787
  85   2.0000      -0.318742        -8.6734
  86   2.0000      -0.313174        -8.5219
  87   2.0000      -0.305832        -8.3221
  88   2.0000      -0.295838        -8.0501
  89   2.0000      -0.289416        -7.8754
  90   2.0000      -0.278519        -7.5789
  91   2.0000      -0.276847        -7.5334
  92   2.0000      -0.270527        -7.3614
  93   2.0000      -0.265953        -7.2369
  94   2.0000      -0.259393        -7.0584
  95   2.0000      -0.231978        -6.3125
  96   2.0000      -0.215900        -5.8749
  97   2.0000      -0.212670        -5.7870
  98   2.0000      -0.200180        -5.4472
  99   2.0000      -0.197539        -5.3753
 100   2.0000      -0.188212        -5.1215
 101   0.0000      -0.045590        -1.2406
 102   0.0000      -0.034114        -0.9283
 103   0.0000      -0.014870        -0.4046
 104   0.0000       0.004695         0.1278
 105   0.0000       0.017528         0.4770

MULLIKEN ATOMIC CHARGES
-----------------------
   0 C :   -0.295865
   1 C :   -0.024641
   2 O :   -0.379956
   3 P :    0.603879
   4 S :   -0.298792
   5 O :   -0.352532
   6 C :   -0.023317
   7 C :   -0.291904
   8 S :   -0.139528
   9 C :   -0.321346
  10 S :   -0.134823
  11 P :    0.628606
  12 S :   -0.295555
  13 O :   -0.368003
  14 C :   -0.035072
  15 C :   -0.286078
  16 O :   -0.378918
  17 C :   -0.009088
  18 C :   -0.310767
  19 H :    0.103291
  20 H :    0.107284
  21 H :    0.127725
  22 H :    0.128317
  23 H :    0.102565
  24 H :    0.116173
  25 H :    0.113559
  26 H :    0.122355
  27 H :    0.110281
  28 H :    0.125295
  29 H :    0.213963
  30 H :    0.185104
  31 H :    0.111901
  32 H :    0.106172
  33 H :    0.108593
  34 H :    0.127444
  35 H :    0.122841
  36 H :    0.125906
  37 H :    0.101832
  38 H :    0.113953
  39 H :    0.107621
  40 H :    0.131524
Sum of atomic charges:    0.0000000

LOEWDIN ATOMIC CHARGES
----------------------
   0 C :   -0.363864
   1 C :   -0.121764
   2 O :   -0.248303
   3 P :    0.563473
   4 S :   -0.285493
   5 O :   -0.232569
   6 C :   -0.110999
   7 C :   -0.360705
   8 S :    0.061187
   9 C :   -0.472858
  10 S :    0.076036
  11 P :    0.572450
  12 S :   -0.292415
  13 O :   -0.245680
  14 C :   -0.119452
  15 C :   -0.361040
  16 O :   -0.250289
  17 C :   -0.122090
  18 C :   -0.366968
  19 H :    0.127495
  20 H :    0.121703
  21 H :    0.112177
  22 H :    0.108843
  23 H :    0.117225
  24 H :    0.124442
  25 H :    0.105231
  26 H :    0.130582
  27 H :    0.129775
  28 H :    0.126262
  29 H :    0.127024
  30 H :    0.137567
  31 H :    0.120687
  32 H :    0.107056
  33 H :    0.129326
  34 H :    0.119454
  35 H :    0.130966
  36 H :    0.110961
  37 H :    0.116797
  38 H :    0.131892
  39 H :    0.120207
  40 H :    0.125672

  Mayer bond orders larger than 0.100000
B(  0-C ,  1-C ) :   1.1686 B(  0-C , 19-H ) :   0.9411 B(  0-C , 20-H ) :   0.9469
B(  0-C , 21-H ) :   0.9296 B(  1-C ,  2-O ) :   0.8965 B(  1-C , 22-H ) :   0.8948
B(  1-C , 23-H ) :   0.9356 B(  2-O ,  3-P ) :   1.0818 B(  3-P ,  4-S ) :   1.6725
B(  3-P ,  5-O ) :   1.1514 B(  3-P ,  8-S ) :   0.9195 B(  4-S ,  8-S ) :   0.1095
B(  5-O ,  6-C ) :   0.8945 B(  6-C ,  7-C ) :   1.1638 B(  6-C , 24-H ) :   0.9358
B(  6-C , 25-H ) :   0.9153 B(  7-C , 26-H ) :   0.9464 B(  7-C , 27-H ) :   0.9385
B(  7-C , 28-H ) :   0.9389 B(  8-S ,  9-C ) :   1.0249 B(  9-C , 10-S ) :   0.9863
B(  9-C , 29-H ) :   0.8442 B(  9-C , 30-H ) :   0.9087 B( 10-S , 11-P ) :   0.9562
B( 10-S , 12-S ) :   0.1080 B( 11-P , 12-S ) :   1.6460 B( 11-P , 13-O ) :   1.1074
B( 11-P , 16-O ) :   1.0697 B( 13-O , 14-C ) :   0.9027 B( 14-C , 15-C ) :   1.1658
B( 14-C , 31-H ) :   0.9340 B( 14-C , 32-H ) :   0.9155 B( 15-C , 33-H ) :   0.9389
B( 15-C , 34-H ) :   0.9361 B( 15-C , 35-H ) :   0.9461 B( 16-O , 17-C ) :   0.9026
B( 17-C , 18-C ) :   1.1587 B( 17-C , 36-H ) :   0.9130 B( 17-C , 37-H ) :   0.9349
B( 18-C , 38-H ) :   0.9396 B( 18-C , 39-H ) :   0.9454 B( 18-C , 40-H ) :   0.9334

Dispersion correction           -0.066359719
FINAL SINGLE POINT ENERGY     -2929.514213300446

DIPOLE MOMENT
-------------

Method             : SCF
Type of density    : Electron Density
Multiplicity       :   1
Irrep              :   0
Energy             : -2929.6340406811873436 Eh
Relativity type    :
Basis              : AO
                                X                 Y                 Z
Electronic contribution:     -1.419004771     -15.534339968     -12.330695808
Nuclear contribution   :      2.253193225      17.177422343      13.152980934
                        -----------------------------------------
Total Dipole Moment    :      0.834188454       1.643082375       0.822285126
                        -----------------------------------------
Magnitude (a.u.)       :      2.017856015
Magnitude (Debye)      :      5.128982382

Rotational constants in cm-1:             0.013216             0.004948             0.004681
Rotational constants in MHz :           396.199342           148.329886           140.334950

                             ****ORCA TERMINATED NORMALLY****
TOTAL RUN TIME: 0 days 0 hours 0 minutes 21 seconds 323 msec
