                         Program Version 6.0.0  -   RELEASE  -
|  1> ! pbe def2-sv(p) def2/J RI DEFGRID1 loosescf d4 GCP(DFT/SV(P)) printgap
|  2> %output
|  3>     printlevel normal
|  4> end
|  5> * xyz 0 1
|  6> C 3.8442434329 1.6530308664 -1.1785563599
|  7> C 4.0983932793 1.0389715007 0.1832540248
|  8> O 3.3232980307 -0.1499186173 0.3808394576
|  9> P 1.7266613846 -0.1171559365 0.4634741454
| 10> S 1.1247208055 1.4083598271 1.5527808874
| 11> O 1.4051115593 -1.5588384737 1.041789683
| 12> C 1.4269667103 -1.8186910678 2.4597436473
| 13> C 2.8340234335 -2.0774587632 2.9571334377
| 14> S 1.2519023091 -0.4675690525 -1.5810266645
| 15> C -0.0358685292 -1.7450997271 -1.5700646058
| 16> S -1.7198714895 -1.174548121 -1.9882134655
| 17> P -2.0127037265 0.2244210782 -0.4258533557
| 18> S -3.8602633203 0.8178926361 -0.1934037742
| 19> O -0.9287353082 1.3485954049 -0.7126495362
| 20> C -1.1101776477 2.2599725982 -1.816405926
| 21> C -1.604416689 3.6005466726 -1.3125037305
| 22> O -1.3113028959 -0.4175544811 0.8486764642
| 23> C -2.1067805162 -1.0986613647 1.8397460176
| 24> C -2.4299202636 -2.5180110424 1.4168098779
| 25> H 4.0286404704 0.9252299903 -1.9646607574
| 26> H 2.80463628 1.9782691563 -1.240580994
| 27> H 4.4911934855 2.5129531263 -1.3185233184
| 28> H 3.8490676129 1.7511263466 0.9775008354
| 29> H 5.1312471633 0.7057807193 0.2913929547
| 30> H 0.9836008106 -0.9612231801 2.9779184113
| 31> H 0.7930733454 -2.6986609941 2.584875221
| 32> H 2.79229799 -2.3803843337 3.9988153968
| 33> H 3.2992794583 -2.8638477583 2.3692189185
| 34> H 3.4342088686 -1.1743145222 2.8732216683
| 35> H -0.0416853491 -2.2340836676 -0.6011824026
| 36> H 0.2207028689 -2.4429331075 -2.3634569825
| 37> H -0.1251139369 2.3431520079 -2.2821049981
| 38> H -1.8144495902 1.8243498835 -2.5343990349
| 39> H -1.6579376326 4.2988243301 -2.1412801186
| 40> H -2.5925574973 3.4922139527 -0.8698853466
| 41> H -0.9242203898 3.9831830901 -0.5558924171
| 42> H -1.4987615321 -1.0678907797 2.7449550901
| 43> H -3.0260437362 -0.5252322075 1.9991359615
| 44> H -2.989757081 -3.0047229199 2.209011044
| 45> H -3.0371802297 -2.5059590481 0.5122175958
| 46> H -1.5194843384 -3.0811666917 1.2261943811
| 47> *
| 48>
| 49>                          ****END OF INPUT****

CARTESIAN COORDINATES (ANGSTROEM)
---------------------------------
  C      3.844243    1.653031   -1.178556
  C      4.098393    1.038972    0.183254
  O      3.323298   -0.149919    0.380839
  P      1.726661   -0.117156    0.463474
  S      1.124721    1.408360    1.552781
  O      1.405112   -1.558838    1.041790
  C      1.426967   -1.818691    2.459744
  C      2.834023   -2.077459    2.957133
  S      1.251902   -0.467569   -1.581027
  C     -0.035869   -1.745100   -1.570065
  S     -1.719871   -1.174548   -1.988213
  P     -2.012704    0.224421   -0.425853
  S     -3.860263    0.817893   -0.193404
  O     -0.928735    1.348595   -0.712650
  C     -1.110178    2.259973   -1.816406
  C     -1.604417    3.600547   -1.312504
  O     -1.311303   -0.417554    0.848676
  C     -2.106781   -1.098661    1.839746
  C     -2.429920   -2.518011    1.416810
  H      4.028640    0.925230   -1.964661
  H      2.804636    1.978269   -1.240581
  H      4.491193    2.512953   -1.318523
  H      3.849068    1.751126    0.977501
  H      5.131247    0.705781    0.291393
  H      0.983601   -0.961223    2.977918
  H      0.793073   -2.698661    2.584875
  H      2.792298   -2.380384    3.998815
  H      3.299279   -2.863848    2.369219
  H      3.434209   -1.174315    2.873222
  H     -0.041685   -2.234084   -0.601182
  H      0.220703   -2.442933   -2.363457
  H     -0.125114    2.343152   -2.282105
  H     -1.814450    1.824350   -2.534399
  H     -1.657938    4.298824   -2.141280
  H     -2.592557    3.492214   -0.869885
  H     -0.924220    3.983183   -0.555892
  H     -1.498762   -1.067891    2.744955
  H     -3.026044   -0.525232    1.999136
  H     -2.989757   -3.004723    2.209011
  H     -3.037180   -2.505959    0.512218
  H     -1.519484   -3.081167    1.226194

 Total Charge           Charge          ....    0
 Multiplicity           Mult            ....    1
 Number of Electrons    NEL             ....  202
 Basis Dimension        Dim             ....  334

ORBITAL ENERGIES
----------------

  NO   OCC          E(Eh)            E(eV)
   0   2.0000     -88.044829     -2395.8216
   1   2.0000     -88.042345     -2395.7540
   2   2.0000     -87.986127     -2394.2242
   3   2.0000     -87.982299     -2394.1201
   4   2.0000     -76.426538     -2079.6718
   5   2.0000     -76.424169     -2079.6074
   6   2.0000     -18.797177      -511.4972
   7   2.0000     -18.793017      -511.3840
   8   2.0000     -18.788723      -511.2671
   9   2.0000     -18.783407      -511.1225
  10   2.0000      -9.961798      -271.0743
  11   2.0000      -9.957441      -270.9557
  12   2.0000      -9.952414      -270.8189
  13   2.0000      -9.950307      -270.7616
  14   2.0000      -9.946429      -270.6561
  15   2.0000      -9.888579      -269.0819
  16   2.0000      -9.888065      -269.0679
  17   2.0000      -9.887315      -269.0475
  18   2.0000      -9.873353      -268.6676
  19   2.0000      -7.689691      -209.2471
  20   2.0000      -7.687617      -209.1907
  21   2.0000      -7.631392      -207.6607
  22   2.0000      -7.627236      -207.5476
  23   2.0000      -6.423876      -174.8026
  24   2.0000      -6.421843      -174.7472
  25   2.0000      -5.718091      -155.5972
  26   2.0000      -5.715672      -155.5313
  27   2.0000      -5.714127      -155.4893
  28   2.0000      -5.711794      -155.4258
  29   2.0000      -5.706192      -155.2734
  30   2.0000      -5.704754      -155.2342
  31   2.0000      -5.660304      -154.0247
  32   2.0000      -5.656301      -153.9158
  33   2.0000      -5.652122      -153.8021
  34   2.0000      -5.651421      -153.7830
  35   2.0000      -5.648222      -153.6959
  36   2.0000      -5.646889      -153.6597
  37   2.0000      -4.646593      -126.4402
  38   2.0000      -4.645721      -126.4165
  39   2.0000      -4.644330      -126.3786
  40   2.0000      -4.644115      -126.3728
  41   2.0000      -4.643905      -126.3671
  42   2.0000      -4.642072      -126.3172
  43   2.0000      -0.988941       -26.9105
  44   2.0000      -0.985340       -26.8125
  45   2.0000      -0.947427       -25.7808
  46   2.0000      -0.942939       -25.6587
  47   2.0000      -0.761485       -20.7211
  48   2.0000      -0.719908       -19.5897
  49   2.0000      -0.709360       -19.3027
  50   2.0000      -0.689631       -18.7658
  51   2.0000      -0.681986       -18.5578
  52   2.0000      -0.676051       -18.3963
  53   2.0000      -0.652876       -17.7657
  54   2.0000      -0.638267       -17.3681
  55   2.0000      -0.600307       -16.3352
  56   2.0000      -0.594051       -16.1650
  57   2.0000      -0.576000       -15.6738
  58   2.0000      -0.566830       -15.4242
  59   2.0000      -0.560086       -15.2407
  60   2.0000      -0.499666       -13.5966
  61   2.0000      -0.496232       -13.5032
  62   2.0000      -0.476272       -12.9600
  63   2.0000      -0.470989       -12.8163
  64   2.0000      -0.462817       -12.5939
  65   2.0000      -0.446983       -12.1630
  66   2.0000      -0.439338       -11.9550
  67   2.0000      -0.437969       -11.9177
  68   2.0000      -0.424626       -11.5547
  69   2.0000      -0.421061       -11.4576
  70   2.0000      -0.409314       -11.1380
  71   2.0000      -0.396540       -10.7904
  72   2.0000      -0.393901       -10.7186
  73   2.0000      -0.389402       -10.5962
  74   2.0000      -0.386499       -10.5172
  75   2.0000      -0.380445       -10.3524
  76   2.0000      -0.367067        -9.9884
  77   2.0000      -0.357500        -9.7281
  78   2.0000      -0.354262        -9.6399
  79   2.0000      -0.352487        -9.5917
  80   2.0000      -0.348233        -9.4759
  81   2.0000      -0.347526        -9.4567
  82   2.0000      -0.337604        -9.1867
  83   2.0000      -0.334810        -9.1106
  84   2.0000      -0.328426        -8.9369
  85   2.0000      -0.324606        -8.8330
  86   2.0000      -0.311382        -8.4731
  87   2.0000      -0.301540        -8.2053
  88   2.0000      -0.297268        -8.0891
  89   2.0000      -0.289553        -7.8791
  90   2.0000      -0.285105        -7.7581
  91   2.0000      -0.277779        -7.5587
  92   2.0000      -0.268931        -7.3180
  93   2.0000      -0.264175        -7.1886
  94   2.0000      -0.253655        -6.9023
  95   2.0000      -0.234127        -6.3709
  96   2.0000      -0.217084        -5.9071
  97   2.0000      -0.207962        -5.6589
  98   2.0000      -0.202551        -5.5117
  99   2.0000      -0.199635        -5.4324
 100   2.0000      -0.189643        -5.1604
 101   0.0000      -0.045034        -1.2254
 102   0.0000      -0.038339        -1.0433
 103   0.0000      -0.017601        -0.4789
 104   0.0000      -0.008372        -0.2278
 105   0.0000       0.012616         0.3433

MULLIKEN ATOMIC CHARGES
-----------------------
   0 C :   -0.334174
   1 C :   -0.001224
   2 O :   -0.375366
   3 P :    0.635985
   4 S :   -0.308228
   5 O :   -0.383248
   6 C :   -0.039575
   7 C :   -0.278849
   8 S :   -0.104314
   9 C :   -0.352873
  10 S :   -0.089429
  11 P :    0.582760
  12 S :   -0.313427
  13 O :   -0.339931
  14 C :   -0.015384
  15 C :   -0.279132
  16 O :   -0.367528
  17 C :   -0.008746
  18 C :   -0.331107
  19 H :    0.124202
  20 H :    0.130189
  21 H :    0.116567
  22 H :    0.108296
  23 H :    0.103501
  24 H :    0.121609
  25 H :    0.104599
  26 H :    0.110310
  27 H :    0.115675
  28 H :    0.123937
  29 H :    0.214510
  30 H :    0.183563
  31 H :    0.106124
  32 H :    0.097027
  33 H :    0.103293
  34 H :    0.122445
  35 H :    0.119666
  36 H :    0.109065
  37 H :    0.120353
  38 H :    0.114240
  39 H :    0.129030
  40 H :    0.125589
Sum of atomic charges:    0.0000000

LOEWDIN ATOMIC CHARGES
----------------------
   0 C :   -0.372437
   1 C :   -0.124859
   2 O :   -0.249433
   3 P :    0.579367
   4 S :   -0.297975
   5 O :   -0.240974
   6 C :   -0.122101
   7 C :   -0.358557
   8 S :    0.096355
   9 C :   -0.476205
  10 S :    0.065789
  11 P :    0.563268
  12 S :   -0.312375
  13 O :   -0.231432
  14 C :   -0.120059
  15 C :   -0.359140
  16 O :   -0.235299
  17 C :   -0.121582
  18 C :   -0.366179
  19 H :    0.125173
  20 H :    0.118445
  21 H :    0.132816
  22 H :    0.106985
  23 H :    0.118051
  24 H :    0.109441
  25 H :    0.113605
  26 H :    0.130033
  27 H :    0.127197
  28 H :    0.126822
  29 H :    0.132545
  30 H :    0.141626
  31 H :    0.111465
  32 H :    0.104222
  33 H :    0.126421
  34 H :    0.124992
  35 H :    0.128571
  36 H :    0.116043
  37 H :    0.111863
  38 H :    0.132236
  39 H :    0.124992
  40 H :    0.120283

  Mayer bond orders larger than 0.100000
B(  0-C ,  1-C ) :   1.1637 B(  0-C , 19-H ) :   0.9416 B(  0-C , 20-H ) :   0.9300
B(  0-C , 21-H ) :   0.9379 B(  1-C ,  2-O ) :   0.9184 B(  1-C , 22-H ) :   0.9101
B(  1-C , 23-H ) :   0.9317 B(  2-O ,  3-P ) :   1.0747 B(  3-P ,  4-S ) :   1.6178
B(  3-P ,  5-O ) :   1.1008 B(  3-P ,  8-S ) :   0.9410 B(  4-S ,  8-S ) :   0.1122
B(  5-O ,  6-C ) :   0.9028 B(  6-C ,  7-C ) :   1.1656 B(  6-C , 24-H ) :   0.8985
B(  6-C , 25-H ) :   0.9297 B(  7-C , 26-H ) :   0.9395 B(  7-C , 27-H ) :   0.9464
B(  7-C , 28-H ) :   0.9405 B(  8-S ,  9-C ) :   1.0131 B(  9-C , 10-S ) :   0.9710
B(  9-C , 29-H ) :   0.8735 B(  9-C , 30-H ) :   0.9104 B( 10-S , 11-P ) :   0.9700
B( 11-P , 12-S ) :   1.6494 B( 11-P , 13-O ) :   1.1167 B( 11-P , 16-O ) :   1.0828
B( 13-O , 14-C ) :   0.9004 B( 14-C , 15-C ) :   1.1679 B( 14-C , 31-H ) :   0.9260
B( 14-C , 32-H ) :   0.9107 B( 15-C , 33-H ) :   0.9406 B( 15-C , 34-H ) :   0.9363
B( 15-C , 35-H ) :   0.9462 B( 16-O , 17-C ) :   0.9041 B( 17-C , 18-C ) :   1.1659
B( 17-C , 36-H ) :   0.9218 B( 17-C , 37-H ) :   0.9062 B( 18-C , 38-H ) :   0.9387
B( 18-C , 39-H ) :   0.9360 B( 18-C , 40-H ) :   0.9354

Dispersion correction           -0.069898558
FINAL SINGLE POINT ENERGY     -2929.509019809407

DIPOLE MOMENT
-------------

Method             : SCF
Type of density    : Electron Density
Multiplicity       :   1
Irrep              :   0
Energy             : -2929.6278176987148072 Eh
Relativity type    :
Basis              : AO
                                X                 Y                 Z
Electronic contribution:    -10.872084035       0.246534773      -8.239101627
Nuclear contribution   :     12.206841144      -1.180028139       8.396123396
                        -----------------------------------------
Total Dipole Moment    :      1.334757109      -0.933493367       0.157021769
                        -----------------------------------------
Magnitude (a.u.)       :      1.636350281
Magnitude (Debye)      :      4.159271871

Rotational constants in cm-1:             0.011007             0.006562             0.005546
Rotational constants in MHz :           329.993484           196.714808           166.253466

                             ****ORCA TERMINATED NORMALLY****
TOTAL RUN TIME: 0 days 0 hours 0 minutes 22 seconds 514 msec
