                         Program Version 6.0.0  -   RELEASE  -
|  1> ! pbe def2-sv(p) def2/J RI DEFGRID1 loosescf d4 GCP(DFT/SV(P)) printgap
|  2> %output
|  3>     printlevel normal
|  4> end
|  5> * xyz 0 1
|  6> C 4.434256033 0.7609829825 -2.0095871465
|  7> C 4.5874743031 0.1996797676 -0.6119163442
|  8> O 3.5281638033 0.6109251636 0.2718387102
|  9> P 1.9799542275 0.3775455395 0.0130503043
| 10> S 1.0398761995 1.5832011966 -1.2191121805
| 11> O 1.3870271874 0.5699978979 1.4619937849
| 12> C 2.0002118612 0.1584562466 2.7112477319
| 13> C 2.0045008649 -1.3458208957 2.8917627454
| 14> S 1.8837470402 -1.6790781982 -0.5368211714
| 15> C 0.1403485173 -1.724887903 -0.9812779666
| 16> S -0.9524940251 -1.4554214183 0.4505441521
| 17> P -2.1910124319 0.1050785042 -0.2932060244
| 18> S -2.2251075802 0.330463892 -2.235209177
| 19> O -1.7964738757 1.4458801998 0.4334651504
| 20> C -1.786377178 1.5820675 1.8769041289
| 21> C -1.0483368289 2.8604781027 2.2128450461
| 22> O -3.5728712911 -0.2067460795 0.4378156917
| 23> C -4.2666908968 -1.4685542873 0.4346020749
| 24> C -4.5780210151 -1.9693944417 -0.9600280724
| 25> H 5.294777552 0.4811452767 -2.6085126846
| 26> H 3.5328510449 0.3664709531 -2.4768221026
| 27> H 4.3534622601 1.8450587921 -1.9774274403
| 28> H 5.4879334958 0.5799285061 -0.1262275352
| 29> H 4.6082071949 -0.8932337344 -0.6347461657
| 30> H 3.0121901127 0.5644872908 2.7455976964
| 31> H 1.3783076264 0.64820587 3.4626305815
| 32> H 1.0095146158 -1.7515127512 2.7213833638
| 33> H 2.6969880534 -1.8163208481 2.1980405453
| 34> H 2.3132089252 -1.5747064237 3.906984906
| 35> H -0.0462256836 -2.7219814729 -1.3722206273
| 36> H -0.0817112881 -0.9581006276 -1.7298494697
| 37> H -2.8231433263 1.6111918919 2.2178564237
| 38> H -1.2864391075 0.7062100353 2.3018460681
| 39> H -1.5481768696 3.7092198856 1.7546386604
| 40> H -1.0259551208 2.9900747963 3.2900230123
| 41> H -0.0320189572 2.8119582375 1.8291350557
| 42> H -3.6570767055 -2.1940796326 0.9803640129
| 43> H -5.1797225966 -1.2560578694 0.9936961649
| 44> H -5.128032558 -1.2165114663 -1.5194905637
| 45> H -3.6571159928 -2.1859171903 -1.4990010497
| 46> H -5.172553955 -2.8746664838 -0.8920954734
| 47> *
| 48>
| 49>                          ****END OF INPUT****

CARTESIAN COORDINATES (ANGSTROEM)
---------------------------------
  C      4.434256    0.760983   -2.009587
  C      4.587474    0.199680   -0.611916
  O      3.528164    0.610925    0.271839
  P      1.979954    0.377546    0.013050
  S      1.039876    1.583201   -1.219112
  O      1.387027    0.569998    1.461994
  C      2.000212    0.158456    2.711248
  C      2.004501   -1.345821    2.891763
  S      1.883747   -1.679078   -0.536821
  C      0.140349   -1.724888   -0.981278
  S     -0.952494   -1.455421    0.450544
  P     -2.191012    0.105079   -0.293206
  S     -2.225108    0.330464   -2.235209
  O     -1.796474    1.445880    0.433465
  C     -1.786377    1.582067    1.876904
  C     -1.048337    2.860478    2.212845
  O     -3.572871   -0.206746    0.437816
  C     -4.266691   -1.468554    0.434602
  C     -4.578021   -1.969394   -0.960028
  H      5.294778    0.481145   -2.608513
  H      3.532851    0.366471   -2.476822
  H      4.353462    1.845059   -1.977427
  H      5.487933    0.579929   -0.126228
  H      4.608207   -0.893234   -0.634746
  H      3.012190    0.564487    2.745598
  H      1.378308    0.648206    3.462631
  H      1.009515   -1.751513    2.721383
  H      2.696988   -1.816321    2.198041
  H      2.313209   -1.574706    3.906985
  H     -0.046226   -2.721981   -1.372221
  H     -0.081711   -0.958101   -1.729849
  H     -2.823143    1.611192    2.217856
  H     -1.286439    0.706210    2.301846
  H     -1.548177    3.709220    1.754639
  H     -1.025955    2.990075    3.290023
  H     -0.032019    2.811958    1.829135
  H     -3.657077   -2.194080    0.980364
  H     -5.179723   -1.256058    0.993696
  H     -5.128033   -1.216511   -1.519491
  H     -3.657116   -2.185917   -1.499001
  H     -5.172554   -2.874666   -0.892095

 Total Charge           Charge          ....    0
 Multiplicity           Mult            ....    1
 Number of Electrons    NEL             ....  202
 Basis Dimension        Dim             ....  334

ORBITAL ENERGIES
----------------

  NO   OCC          E(Eh)            E(eV)
   0   2.0000     -88.045861     -2395.8497
   1   2.0000     -88.041705     -2395.7366
   2   2.0000     -87.975536     -2393.9360
   3   2.0000     -87.975194     -2393.9267
   4   2.0000     -76.425027     -2079.6307
   5   2.0000     -76.418940     -2079.4651
   6   2.0000     -18.797429      -511.5040
   7   2.0000     -18.790684      -511.3205
   8   2.0000     -18.787150      -511.2243
   9   2.0000     -18.779210      -511.0083
  10   2.0000      -9.962260      -271.0869
  11   2.0000      -9.958447      -270.9831
  12   2.0000      -9.954219      -270.8681
  13   2.0000      -9.952844      -270.8307
  14   2.0000      -9.945566      -270.6326
  15   2.0000      -9.888780      -269.0874
  16   2.0000      -9.883428      -268.9418
  17   2.0000      -9.879058      -268.8228
  18   2.0000      -9.875767      -268.7333
  19   2.0000      -7.690777      -209.2767
  20   2.0000      -7.686176      -209.1515
  21   2.0000      -7.620471      -207.3635
  22   2.0000      -7.620376      -207.3610
  23   2.0000      -6.421956      -174.7503
  24   2.0000      -6.416024      -174.5889
  25   2.0000      -5.718569      -155.6102
  26   2.0000      -5.715136      -155.5167
  27   2.0000      -5.713941      -155.4842
  28   2.0000      -5.710538      -155.3916
  29   2.0000      -5.708016      -155.3230
  30   2.0000      -5.703467      -155.1992
  31   2.0000      -5.649646      -153.7347
  32   2.0000      -5.649546      -153.7320
  33   2.0000      -5.641015      -153.4998
  34   2.0000      -5.640975      -153.4987
  35   2.0000      -5.640391      -153.4828
  36   2.0000      -5.640362      -153.4821
  37   2.0000      -4.645014      -126.3973
  38   2.0000      -4.643939      -126.3680
  39   2.0000      -4.641791      -126.3096
  40   2.0000      -4.638713      -126.2258
  41   2.0000      -4.638057      -126.2079
  42   2.0000      -4.636215      -126.1578
  43   2.0000      -0.990489       -26.9526
  44   2.0000      -0.980036       -26.6681
  45   2.0000      -0.945910       -25.7395
  46   2.0000      -0.934197       -25.4208
  47   2.0000      -0.762884       -20.7591
  48   2.0000      -0.719497       -19.5785
  49   2.0000      -0.709857       -19.3162
  50   2.0000      -0.693280       -18.8651
  51   2.0000      -0.683505       -18.5991
  52   2.0000      -0.676932       -18.4203
  53   2.0000      -0.647143       -17.6096
  54   2.0000      -0.630959       -17.1693
  55   2.0000      -0.589615       -16.0442
  56   2.0000      -0.584838       -15.9142
  57   2.0000      -0.581786       -15.8312
  58   2.0000      -0.566787       -15.4231
  59   2.0000      -0.560966       -15.2647
  60   2.0000      -0.504188       -13.7196
  61   2.0000      -0.498301       -13.5595
  62   2.0000      -0.473706       -12.8902
  63   2.0000      -0.468334       -12.7440
  64   2.0000      -0.453706       -12.3460
  65   2.0000      -0.450121       -12.2484
  66   2.0000      -0.441540       -12.0149
  67   2.0000      -0.433555       -11.7976
  68   2.0000      -0.425718       -11.5844
  69   2.0000      -0.415571       -11.3083
  70   2.0000      -0.411398       -11.1947
  71   2.0000      -0.409275       -11.1369
  72   2.0000      -0.401698       -10.9308
  73   2.0000      -0.388045       -10.5592
  74   2.0000      -0.378470       -10.2987
  75   2.0000      -0.356771        -9.7082
  76   2.0000      -0.355977        -9.6866
  77   2.0000      -0.350943        -9.5496
  78   2.0000      -0.350132        -9.5276
  79   2.0000      -0.344858        -9.3841
  80   2.0000      -0.343515        -9.3475
  81   2.0000      -0.343091        -9.3360
  82   2.0000      -0.342994        -9.3334
  83   2.0000      -0.335537        -9.1304
  84   2.0000      -0.329305        -8.9608
  85   2.0000      -0.322176        -8.7669
  86   2.0000      -0.312812        -8.5120
  87   2.0000      -0.299386        -8.1467
  88   2.0000      -0.294492        -8.0135
  89   2.0000      -0.291118        -7.9217
  90   2.0000      -0.285879        -7.7792
  91   2.0000      -0.279094        -7.5945
  92   2.0000      -0.265595        -7.2272
  93   2.0000      -0.261855        -7.1254
  94   2.0000      -0.254699        -6.9307
  95   2.0000      -0.234841        -6.3904
  96   2.0000      -0.220889        -6.0107
  97   2.0000      -0.206053        -5.6070
  98   2.0000      -0.194356        -5.2887
  99   2.0000      -0.185933        -5.0595
 100   2.0000      -0.178484        -4.8568
 101   0.0000      -0.042938        -1.1684
 102   0.0000      -0.030841        -0.8392
 103   0.0000      -0.010087        -0.2745
 104   0.0000       0.009908         0.2696
 105   0.0000       0.019099         0.5197

MULLIKEN ATOMIC CHARGES
-----------------------
   0 C :   -0.308015
   1 C :   -0.015063
   2 O :   -0.383135
   3 P :    0.596276
   4 S :   -0.272970
   5 O :   -0.353860
   6 C :   -0.002055
   7 C :   -0.318313
   8 S :   -0.128198
   9 C :   -0.339046
  10 S :   -0.137573
  11 P :    0.612226
  12 S :   -0.287631
  13 O :   -0.344355
  14 C :   -0.013606
  15 C :   -0.286457
  16 O :   -0.387561
  17 C :   -0.005144
  18 C :   -0.304551
  19 H :    0.111117
  20 H :    0.130397
  21 H :    0.127611
  22 H :    0.109226
  23 H :    0.113969
  24 H :    0.111478
  25 H :    0.106091
  26 H :    0.129574
  27 H :    0.121271
  28 H :    0.110721
  29 H :    0.179535
  30 H :    0.212501
  31 H :    0.102608
  32 H :    0.098325
  33 H :    0.118614
  34 H :    0.097926
  35 H :    0.135488
  36 H :    0.105804
  37 H :    0.104451
  38 H :    0.125699
  39 H :    0.119561
  40 H :    0.107067
Sum of atomic charges:    0.0000000

LOEWDIN ATOMIC CHARGES
----------------------
   0 C :   -0.368825
   1 C :   -0.114878
   2 O :   -0.246092
   3 P :    0.557703
   4 S :   -0.282077
   5 O :   -0.232502
   6 C :   -0.110259
   7 C :   -0.371241
   8 S :    0.067392
   9 C :   -0.478945
  10 S :    0.059756
  11 P :    0.568444
  12 S :   -0.290118
  13 O :   -0.225748
  14 C :   -0.114838
  15 C :   -0.354135
  16 O :   -0.249609
  17 C :   -0.117166
  18 C :   -0.368588
  19 H :    0.130106
  20 H :    0.123478
  21 H :    0.131562
  22 H :    0.121027
  23 H :    0.107363
  24 H :    0.114241
  25 H :    0.117836
  26 H :    0.123002
  27 H :    0.116889
  28 H :    0.129675
  29 H :    0.135524
  30 H :    0.126203
  31 H :    0.110602
  32 H :    0.100586
  33 H :    0.129380
  34 H :    0.123677
  35 H :    0.130233
  36 H :    0.104112
  37 H :    0.118797
  38 H :    0.130290
  39 H :    0.119351
  40 H :    0.127796

  Mayer bond orders larger than 0.100000
B(  0-C ,  1-C ) :   1.1664 B(  0-C , 19-H ) :   0.9347 B(  0-C , 20-H ) :   0.9309
B(  0-C , 21-H ) :   0.9434 B(  1-C ,  2-O ) :   0.9129 B(  1-C , 22-H ) :   0.9335
B(  1-C , 23-H ) :   0.9257 B(  2-O ,  3-P ) :   1.0756 B(  3-P ,  4-S ) :   1.6842
B(  3-P ,  5-O ) :   1.1140 B(  3-P ,  8-S ) :   0.9210 B(  4-S ,  8-S ) :   0.1087
B(  5-O ,  6-C ) :   0.8982 B(  6-C ,  7-C ) :   1.1724 B(  6-C , 24-H ) :   0.9265
B(  6-C , 25-H ) :   0.9311 B(  7-C , 26-H ) :   0.9393 B(  7-C , 27-H ) :   0.9387
B(  7-C , 28-H ) :   0.9359 B(  8-S ,  9-C ) :   1.0092 B(  9-C , 10-S ) :   0.9954
B(  9-C , 29-H ) :   0.9106 B(  9-C , 30-H ) :   0.8390 B( 10-S , 11-P ) :   0.9376
B( 10-S , 12-S ) :   0.1141 B( 11-P , 12-S ) :   1.6482 B( 11-P , 13-O ) :   1.1422
B( 11-P , 16-O ) :   1.0704 B( 13-O , 14-C ) :   0.8956 B( 14-C , 15-C ) :   1.1683
B( 14-C , 31-H ) :   0.9285 B( 14-C , 32-H ) :   0.9133 B( 15-C , 33-H ) :   0.9486
B( 15-C , 34-H ) :   0.9402 B( 15-C , 35-H ) :   0.9374 B( 16-O , 17-C ) :   0.9196
B( 17-C , 18-C ) :   1.1662 B( 17-C , 36-H ) :   0.9235 B( 17-C , 37-H ) :   0.9336
B( 18-C , 38-H ) :   0.9442 B( 18-C , 39-H ) :   0.9334 B( 18-C , 40-H ) :   0.9353

Dispersion correction           -0.068419485
FINAL SINGLE POINT ENERGY     -2929.511109017353

DIPOLE MOMENT
-------------

Method             : SCF
Type of density    : Electron Density
Multiplicity       :   1
Irrep              :   0
Energy             : -2929.6291323004088554 Eh
Relativity type    :
Basis              : AO
                                X                 Y                 Z
Electronic contribution:     -3.145515668       2.066498260     -11.303167307
Nuclear contribution   :      3.988117289      -3.295713953      13.118447637
                        -----------------------------------------
Total Dipole Moment    :      0.842601621      -1.229215693       1.815280330
                        -----------------------------------------
Magnitude (a.u.)       :      2.348657358
Magnitude (Debye)      :      5.969812576

Rotational constants in cm-1:             0.012406             0.005476             0.005220
Rotational constants in MHz :           371.935753           164.176184           156.484682

                             ****ORCA TERMINATED NORMALLY****
TOTAL RUN TIME: 0 days 0 hours 0 minutes 22 seconds 37 msec
