                         Program Version 6.0.0  -   RELEASE  -
|  1> ! pbe def2-sv(p) def2/J RI DEFGRID1 loosescf d4 GCP(DFT/SV(P)) printgap
|  2> %output
|  3>     printlevel normal
|  4> end
|  5> * xyz 0 1
|  6> C 4.9367582934 1.6986246234 -0.6687530031
|  7> C 4.6131046791 0.2346559803 -0.8977822131
|  8> O 3.7451312404 -0.2713724796 0.1362644507
|  9> P 2.16335959 -0.2880233371 0.0065298148
| 10> S 1.2865773304 1.4368102179 -0.3509721991
| 11> O 1.7552602233 -1.0204255837 1.3444146866
| 12> C 1.3597930438 -0.3174257658 2.5392547652
| 13> C 2.5022443673 0.4954687985 3.1094110161
| 14> S 1.8329817772 -1.8063754026 -1.4195152852
| 15> C 0.0934105421 -1.4617108379 -1.7730073406
| 16> S -0.9842205529 -1.7097250541 -0.3219039604
| 17> P -2.0840910068 0.1015136581 -0.3736450222
| 18> S -2.0126335306 1.1816957942 -1.9958593462
| 19> O -1.5914109618 0.7812131913 0.9915103498
| 20> C -1.7234394229 2.2011141378 1.2014578983
| 21> C -3.173289867 2.6163346387 1.3382242167
| 22> O -3.5705335446 -0.3844284641 -0.0999923747
| 23> C -3.9182108284 -1.1956746385 1.0484343602
| 24> C -5.4250102672 -1.1571176304 1.1986099875
| 25> H 4.0316808458 2.2992269283 -0.729714151
| 26> H 5.3827748509 1.8340207272 0.3125605029
| 27> H 5.6341720263 2.0337388607 -1.4296528555
| 28> H 5.5081699079 -0.3861969724 -0.8285193872
| 29> H 4.1409258143 0.0834824913 -1.872734789
| 30> H 0.505356874 0.3220728606 2.2972908674
| 31> H 1.0448957142 -1.1142176797 3.2143934789
| 32> H 2.778131314 1.2812370443 2.4064102454
| 33> H 2.1948062781 0.948647694 4.0466602717
| 34> H 3.3659556422 -0.1420344485 3.2787588605
| 35> H -0.2000303314 -2.169363638 -2.5442855873
| 36> H -0.0253266013 -0.4315193549 -2.1214204907
| 37> H -1.1572433255 2.3894890828 2.1151031817
| 38> H -1.2428903489 2.7192749247 0.3652515273
| 39> H -3.645308366 2.0839451891 2.1602352616
| 40> H -3.2226459012 3.6843800373 1.5253176657
| 41> H -3.7077802275 2.3943467057 0.4145158622
| 42> H -3.5583276825 -2.2113204814 0.8632573947
| 43> H -3.4127779968 -0.793216506 1.9303875205
| 44> H -5.8958745523 -1.5300721496 0.293806977
| 45> H -5.7150110658 -1.7795276923 2.0388943972
| 46> H -5.7606553898 -0.1383088293 1.3708129509
| 47> *
| 48>
| 49>                          ****END OF INPUT****

CARTESIAN COORDINATES (ANGSTROEM)
---------------------------------
  C      4.936758    1.698625   -0.668753
  C      4.613105    0.234656   -0.897782
  O      3.745131   -0.271372    0.136264
  P      2.163360   -0.288023    0.006530
  S      1.286577    1.436810   -0.350972
  O      1.755260   -1.020426    1.344415
  C      1.359793   -0.317426    2.539255
  C      2.502244    0.495469    3.109411
  S      1.832982   -1.806375   -1.419515
  C      0.093411   -1.461711   -1.773007
  S     -0.984221   -1.709725   -0.321904
  P     -2.084091    0.101514   -0.373645
  S     -2.012634    1.181696   -1.995859
  O     -1.591411    0.781213    0.991510
  C     -1.723439    2.201114    1.201458
  C     -3.173290    2.616335    1.338224
  O     -3.570534   -0.384428   -0.099992
  C     -3.918211   -1.195675    1.048434
  C     -5.425010   -1.157118    1.198610
  H      4.031681    2.299227   -0.729714
  H      5.382775    1.834021    0.312561
  H      5.634172    2.033739   -1.429653
  H      5.508170   -0.386197   -0.828519
  H      4.140926    0.083482   -1.872735
  H      0.505357    0.322073    2.297291
  H      1.044896   -1.114218    3.214393
  H      2.778131    1.281237    2.406410
  H      2.194806    0.948648    4.046660
  H      3.365956   -0.142034    3.278759
  H     -0.200030   -2.169364   -2.544286
  H     -0.025327   -0.431519   -2.121420
  H     -1.157243    2.389489    2.115103
  H     -1.242890    2.719275    0.365252
  H     -3.645308    2.083945    2.160235
  H     -3.222646    3.684380    1.525318
  H     -3.707780    2.394347    0.414516
  H     -3.558328   -2.211320    0.863257
  H     -3.412778   -0.793217    1.930388
  H     -5.895875   -1.530072    0.293807
  H     -5.715011   -1.779528    2.038894
  H     -5.760655   -0.138309    1.370813

 Total Charge           Charge          ....    0
 Multiplicity           Mult            ....    1
 Number of Electrons    NEL             ....  202
 Basis Dimension        Dim             ....  334

ORBITAL ENERGIES
----------------

  NO   OCC          E(Eh)            E(eV)
   0   2.0000     -88.041813     -2395.7395
   1   2.0000     -88.038592     -2395.6519
   2   2.0000     -87.983998     -2394.1663
   3   2.0000     -87.983056     -2394.1407
   4   2.0000     -76.424757     -2079.6234
   5   2.0000     -76.421877     -2079.5450
   6   2.0000     -18.791782      -511.3504
   7   2.0000     -18.790265      -511.3091
   8   2.0000     -18.788323      -511.2563
   9   2.0000     -18.785546      -511.1807
  10   2.0000      -9.956987      -270.9434
  11   2.0000      -9.954862      -270.8856
  12   2.0000      -9.952526      -270.8220
  13   2.0000      -9.947727      -270.6914
  14   2.0000      -9.947536      -270.6862
  15   2.0000      -9.891553      -269.1628
  16   2.0000      -9.883956      -268.9561
  17   2.0000      -9.881663      -268.8937
  18   2.0000      -9.880713      -268.8679
  19   2.0000      -7.687449      -209.1861
  20   2.0000      -7.683632      -209.0823
  21   2.0000      -7.628547      -207.5833
  22   2.0000      -7.628365      -207.5784
  23   2.0000      -6.422106      -174.7544
  24   2.0000      -6.419842      -174.6928
  25   2.0000      -5.715354      -155.5227
  26   2.0000      -5.711829      -155.4268
  27   2.0000      -5.711493      -155.4176
  28   2.0000      -5.708362      -155.3324
  29   2.0000      -5.704450      -155.2260
  30   2.0000      -5.700374      -155.1151
  31   2.0000      -5.657458      -153.9473
  32   2.0000      -5.657346      -153.9442
  33   2.0000      -5.649205      -153.7227
  34   2.0000      -5.649201      -153.7226
  35   2.0000      -5.648817      -153.7121
  36   2.0000      -5.648052      -153.6913
  37   2.0000      -4.644512      -126.3836
  38   2.0000      -4.643960      -126.3686
  39   2.0000      -4.642684      -126.3339
  40   2.0000      -4.642608      -126.3318
  41   2.0000      -4.641221      -126.2940
  42   2.0000      -4.640494      -126.2743
  43   2.0000      -0.985211       -26.8090
  44   2.0000      -0.982546       -26.7364
  45   2.0000      -0.943567       -25.6758
  46   2.0000      -0.940770       -25.5997
  47   2.0000      -0.760671       -20.6989
  48   2.0000      -0.721428       -19.6311
  49   2.0000      -0.708279       -19.2733
  50   2.0000      -0.690381       -18.7862
  51   2.0000      -0.684979       -18.6392
  52   2.0000      -0.672058       -18.2876
  53   2.0000      -0.650595       -17.7036
  54   2.0000      -0.635325       -17.2881
  55   2.0000      -0.597125       -16.2486
  56   2.0000      -0.587751       -15.9935
  57   2.0000      -0.572467       -15.5776
  58   2.0000      -0.568962       -15.4822
  59   2.0000      -0.560100       -15.2411
  60   2.0000      -0.506036       -13.7699
  61   2.0000      -0.495741       -13.4898
  62   2.0000      -0.476545       -12.9675
  63   2.0000      -0.472266       -12.8510
  64   2.0000      -0.449719       -12.2375
  65   2.0000      -0.443598       -12.0709
  66   2.0000      -0.440846       -11.9960
  67   2.0000      -0.437481       -11.9045
  68   2.0000      -0.426655       -11.6099
  69   2.0000      -0.406890       -11.0720
  70   2.0000      -0.404755       -11.0139
  71   2.0000      -0.400280       -10.8922
  72   2.0000      -0.392595       -10.6830
  73   2.0000      -0.391119       -10.6429
  74   2.0000      -0.387493       -10.5442
  75   2.0000      -0.367639       -10.0040
  76   2.0000      -0.364373        -9.9151
  77   2.0000      -0.359318        -9.7775
  78   2.0000      -0.351571        -9.5667
  79   2.0000      -0.349163        -9.5012
  80   2.0000      -0.345530        -9.4024
  81   2.0000      -0.342073        -9.3083
  82   2.0000      -0.337257        -9.1772
  83   2.0000      -0.336029        -9.1438
  84   2.0000      -0.332022        -9.0348
  85   2.0000      -0.316861        -8.6222
  86   2.0000      -0.314919        -8.5694
  87   2.0000      -0.311848        -8.4858
  88   2.0000      -0.296462        -8.0671
  89   2.0000      -0.283726        -7.7206
  90   2.0000      -0.278515        -7.5788
  91   2.0000      -0.271783        -7.3956
  92   2.0000      -0.267588        -7.2814
  93   2.0000      -0.264858        -7.2072
  94   2.0000      -0.260992        -7.1020
  95   2.0000      -0.230984        -6.2854
  96   2.0000      -0.217753        -5.9254
  97   2.0000      -0.214009        -5.8235
  98   2.0000      -0.201732        -5.4894
  99   2.0000      -0.196193        -5.3387
 100   2.0000      -0.187585        -5.1044
 101   0.0000      -0.040350        -1.0980
 102   0.0000      -0.031126        -0.8470
 103   0.0000      -0.008803        -0.2395
 104   0.0000       0.015549         0.4231
 105   0.0000       0.023447         0.6380

MULLIKEN ATOMIC CHARGES
-----------------------
   0 C :   -0.295374
   1 C :   -0.011349
   2 O :   -0.370575
   3 P :    0.607881
   4 S :   -0.327062
   5 O :   -0.356833
   6 C :   -0.023102
   7 C :   -0.309400
   8 S :   -0.087398
   9 C :   -0.351471
  10 S :   -0.111751
  11 P :    0.622076
  12 S :   -0.294052
  13 O :   -0.382955
  14 C :   -0.013093
  15 C :   -0.309309
  16 O :   -0.372061
  17 C :   -0.035314
  18 C :   -0.275502
  19 H :    0.130609
  20 H :    0.113279
  21 H :    0.107823
  22 H :    0.108023
  23 H :    0.104450
  24 H :    0.137143
  25 H :    0.101743
  26 H :    0.122772
  27 H :    0.107632
  28 H :    0.115948
  29 H :    0.183082
  30 H :    0.210272
  31 H :    0.100242
  32 H :    0.125568
  33 H :    0.109089
  34 H :    0.113023
  35 H :    0.133433
  36 H :    0.113764
  37 H :    0.104802
  38 H :    0.124131
  39 H :    0.110535
  40 H :    0.119282
Sum of atomic charges:    0.0000000

LOEWDIN ATOMIC CHARGES
----------------------
   0 C :   -0.364037
   1 C :   -0.115342
   2 O :   -0.244757
   3 P :    0.564930
   4 S :   -0.305585
   5 O :   -0.234417
   6 C :   -0.117649
   7 C :   -0.367037
   8 S :    0.083163
   9 C :   -0.476456
  10 S :    0.069706
  11 P :    0.573253
  12 S :   -0.289815
  13 O :   -0.250971
  14 C :   -0.122417
  15 C :   -0.367190
  16 O :   -0.247737
  17 C :   -0.123567
  18 C :   -0.348495
  19 H :    0.124805
  20 H :    0.125009
  21 H :    0.128923
  22 H :    0.119117
  23 H :    0.108054
  24 H :    0.114980
  25 H :    0.118532
  26 H :    0.121108
  27 H :    0.128153
  28 H :    0.125859
  29 H :    0.136454
  30 H :    0.125076
  31 H :    0.113455
  32 H :    0.111117
  33 H :    0.120059
  34 H :    0.131699
  35 H :    0.125705
  36 H :    0.110311
  37 H :    0.106720
  38 H :    0.131489
  39 H :    0.130210
  40 H :    0.127588

  Mayer bond orders larger than 0.100000
B(  0-C ,  1-C ) :   1.1675 B(  0-C , 19-H ) :   0.9311 B(  0-C , 20-H ) :   0.9468
B(  0-C , 21-H ) :   0.9393 B(  1-C ,  2-O ) :   0.9052 B(  1-C , 22-H ) :   0.9361
B(  1-C , 23-H ) :   0.9162 B(  2-O ,  3-P ) :   1.1088 B(  3-P ,  4-S ) :   1.6077
B(  3-P ,  5-O ) :   1.1385 B(  3-P ,  8-S ) :   0.9581 B(  4-S ,  8-S ) :   0.1108
B(  5-O ,  6-C ) :   0.9000 B(  6-C ,  7-C ) :   1.1614 B(  6-C , 24-H ) :   0.9081
B(  6-C , 25-H ) :   0.9344 B(  7-C , 26-H ) :   0.9326 B(  7-C , 27-H ) :   0.9390
B(  7-C , 28-H ) :   0.9449 B(  8-S ,  9-C ) :   1.0066 B(  9-C , 10-S ) :   0.9986
B(  9-C , 29-H ) :   0.9119 B(  9-C , 30-H ) :   0.8478 B( 10-S , 11-P ) :   0.9618
B( 10-S , 12-S ) :   0.1120 B( 11-P , 12-S ) :   1.6410 B( 11-P , 13-O ) :   1.0688
B( 11-P , 16-O ) :   1.1027 B( 13-O , 14-C ) :   0.9014 B( 14-C , 15-C ) :   1.1606
B( 14-C , 31-H ) :   0.9312 B( 14-C , 32-H ) :   0.9129 B( 15-C , 33-H ) :   0.9445
B( 15-C , 34-H ) :   0.9386 B( 15-C , 35-H ) :   0.9317 B( 16-O , 17-C ) :   0.9052
B( 17-C , 18-C ) :   1.1675 B( 17-C , 36-H ) :   0.9205 B( 17-C , 37-H ) :   0.9160
B( 18-C , 38-H ) :   0.9490 B( 18-C , 39-H ) :   0.9407 B( 18-C , 40-H ) :   0.9512

Dispersion correction           -0.066523832
FINAL SINGLE POINT ENERGY     -2929.519286474907

DIPOLE MOMENT
-------------

Method             : SCF
Type of density    : Electron Density
Multiplicity       :   1
Irrep              :   0
Energy             : -2929.6383392104266932 Eh
Relativity type    :
Basis              : AO
                                X                 Y                 Z
Electronic contribution:      2.942404337     -11.102226193     -17.029887064
Nuclear contribution   :     -2.843542703      10.853973207      18.407453554
                        -----------------------------------------
Total Dipole Moment    :      0.098861635      -0.248252987       1.377566490
                        -----------------------------------------
Magnitude (a.u.)       :      1.403243600
Magnitude (Debye)      :      3.566761777

Rotational constants in cm-1:             0.012969             0.005027             0.004801
Rotational constants in MHz :           388.791563           150.699182           143.928852

                             ****ORCA TERMINATED NORMALLY****
TOTAL RUN TIME: 0 days 0 hours 0 minutes 21 seconds 392 msec
