                         Program Version 6.0.0  -   RELEASE  -
|  1> ! pbe def2-sv(p) def2/J RI DEFGRID1 loosescf d4 GCP(DFT/SV(P)) printgap
|  2> %output
|  3>     printlevel normal
|  4> end
|  5> * xyz 0 1
|  6> C 3.265253559 -0.3763601334 -2.658867977
|  7> C 2.077953487 -0.9919587709 -1.950228514
|  8> O 1.4935935984 -0.0473603052 -1.0159914944
|  9> P 1.8279331594 -0.0220298913 0.5186817168
| 10> S 0.9216546087 1.4152459186 1.4871069202
| 11> O 3.4118754935 0.0354971652 0.5450896201
| 12> C 4.1332117307 0.0982740138 1.7945011279
| 13> C 5.574539578 0.4428507705 1.4809880327
| 14> S 1.4171365068 -1.9683692934 1.2653642817
| 15> C -0.3698616882 -1.7453746007 1.4305124731
| 16> S -1.2369534506 -1.7152418032 -0.1731936019
| 17> P -2.0139030767 0.2505921551 -0.374340869
| 18> S -1.1246138574 1.6208286012 -1.4673250953
| 19> O -2.2880162379 0.5724985739 1.1504475468
| 20> C -2.5379018094 1.9137045775 1.6172439416
| 21> C -3.8509524292 2.4564957932 1.097336291
| 22> O -3.4848382788 -0.0616175142 -0.9051398147
| 23> C -3.7933226692 -0.1383320988 -2.3037215936
| 24> C -3.1701377216 -1.3615099547 -2.9451063139
| 25> H 4.0550986833 -0.1525978324 -1.946817432
| 26> H 3.6353725671 -1.0764828563 -3.401225641
| 27> H 2.964695598 0.5451919737 -3.1505287172
| 28> H 2.3597665051 -1.8983602366 -1.4066733044
| 29> H 1.2676189487 -1.2160755147 -2.6469790506
| 30> H 3.664363295 0.8584385824 2.4275919603
| 31> H 4.0503962807 -0.875887221 2.2836301357
| 32> H 6.0083773181 -0.3185389256 0.8393776999
| 33> H 5.6279902142 1.4035890396 0.9764121911
| 34> H 6.1362199217 0.4939253942 2.4078140643
| 35> H -0.569522782 -0.8181229371 1.9667478915
| 36> H -0.7396544403 -2.6104785184 1.9739634689
| 37> H -2.5368024896 1.8130355556 2.703594792
| 38> H -1.6992343085 2.5486111142 1.3125964951
| 39> H -4.659025349 1.7675789055 1.3289127995
| 40> H -4.0472209677 3.4185326003 1.5600505774
| 41> H -3.7951694528 2.5873759567 0.0173497718
| 42> H -4.8828944053 -0.1734663135 -2.3348821234
| 43> H -3.4330987753 0.7757309463 -2.7882364761
| 44> H -3.4720149182 -1.421330657 -3.9856436264
| 45> H -2.0833545821 -1.2843024126 -2.8935794515
| 46> H -3.4784197755 -2.2631304107 -2.422446166
| 47> *
| 48>
| 49>                          ****END OF INPUT****

CARTESIAN COORDINATES (ANGSTROEM)
---------------------------------
  C      3.265254   -0.376360   -2.658868
  C      2.077953   -0.991959   -1.950229
  O      1.493594   -0.047360   -1.015991
  P      1.827933   -0.022030    0.518682
  S      0.921655    1.415246    1.487107
  O      3.411875    0.035497    0.545090
  C      4.133212    0.098274    1.794501
  C      5.574540    0.442851    1.480988
  S      1.417137   -1.968369    1.265364
  C     -0.369862   -1.745375    1.430512
  S     -1.236953   -1.715242   -0.173194
  P     -2.013903    0.250592   -0.374341
  S     -1.124614    1.620829   -1.467325
  O     -2.288016    0.572499    1.150448
  C     -2.537902    1.913705    1.617244
  C     -3.850952    2.456496    1.097336
  O     -3.484838   -0.061618   -0.905140
  C     -3.793323   -0.138332   -2.303722
  C     -3.170138   -1.361510   -2.945106
  H      4.055099   -0.152598   -1.946817
  H      3.635373   -1.076483   -3.401226
  H      2.964696    0.545192   -3.150529
  H      2.359767   -1.898360   -1.406673
  H      1.267619   -1.216076   -2.646979
  H      3.664363    0.858439    2.427592
  H      4.050396   -0.875887    2.283630
  H      6.008377   -0.318539    0.839378
  H      5.627990    1.403589    0.976412
  H      6.136220    0.493925    2.407814
  H     -0.569523   -0.818123    1.966748
  H     -0.739654   -2.610479    1.973963
  H     -2.536802    1.813036    2.703595
  H     -1.699234    2.548611    1.312596
  H     -4.659025    1.767579    1.328913
  H     -4.047221    3.418533    1.560051
  H     -3.795169    2.587376    0.017350
  H     -4.882894   -0.173466   -2.334882
  H     -3.433099    0.775731   -2.788236
  H     -3.472015   -1.421331   -3.985644
  H     -2.083355   -1.284302   -2.893579
  H     -3.478420   -2.263130   -2.422446

 Total Charge           Charge          ....    0
 Multiplicity           Mult            ....    1
 Number of Electrons    NEL             ....  202
 Basis Dimension        Dim             ....  334

ORBITAL ENERGIES
----------------

  NO   OCC          E(Eh)            E(eV)
   0   2.0000     -88.041043     -2395.7186
   1   2.0000     -88.035395     -2395.5649
   2   2.0000     -87.981388     -2394.0953
   3   2.0000     -87.973864     -2393.8906
   4   2.0000     -76.423595     -2079.5917
   5   2.0000     -76.417317     -2079.4209
   6   2.0000     -18.796249      -511.4719
   7   2.0000     -18.788431      -511.2592
   8   2.0000     -18.784764      -511.1594
   9   2.0000     -18.780164      -511.0342
  10   2.0000      -9.955907      -270.9140
  11   2.0000      -9.954945      -270.8878
  12   2.0000      -9.950823      -270.7757
  13   2.0000      -9.944497      -270.6035
  14   2.0000      -9.942607      -270.5521
  15   2.0000      -9.891327      -269.1567
  16   2.0000      -9.882281      -268.9105
  17   2.0000      -9.882233      -268.9092
  18   2.0000      -9.875906      -268.7371
  19   2.0000      -7.686482      -209.1598
  20   2.0000      -7.680626      -209.0005
  21   2.0000      -7.626456      -207.5264
  22   2.0000      -7.618774      -207.3174
  23   2.0000      -6.421308      -174.7327
  24   2.0000      -6.414758      -174.5544
  25   2.0000      -5.714119      -155.4891
  26   2.0000      -5.710926      -155.4022
  27   2.0000      -5.708945      -155.3483
  28   2.0000      -5.704924      -155.2389
  29   2.0000      -5.703717      -155.2060
  30   2.0000      -5.697318      -155.0319
  31   2.0000      -5.655367      -153.8903
  32   2.0000      -5.647758      -153.6833
  33   2.0000      -5.647059      -153.6643
  34   2.0000      -5.646573      -153.6511
  35   2.0000      -5.639653      -153.4628
  36   2.0000      -5.638648      -153.4354
  37   2.0000      -4.644172      -126.3743
  38   2.0000      -4.643168      -126.3470
  39   2.0000      -4.641351      -126.2976
  40   2.0000      -4.637331      -126.1882
  41   2.0000      -4.636604      -126.1684
  42   2.0000      -4.635149      -126.1288
  43   2.0000      -0.988944       -26.9105
  44   2.0000      -0.978528       -26.6271
  45   2.0000      -0.945422       -25.7262
  46   2.0000      -0.937997       -25.5242
  47   2.0000      -0.759156       -20.6577
  48   2.0000      -0.718200       -19.5432
  49   2.0000      -0.705850       -19.2071
  50   2.0000      -0.692042       -18.8314
  51   2.0000      -0.681521       -18.5451
  52   2.0000      -0.668740       -18.1973
  53   2.0000      -0.646999       -17.6057
  54   2.0000      -0.629845       -17.1390
  55   2.0000      -0.593631       -16.1535
  56   2.0000      -0.586564       -15.9612
  57   2.0000      -0.568584       -15.4720
  58   2.0000      -0.566214       -15.4075
  59   2.0000      -0.562516       -15.3068
  60   2.0000      -0.508119       -13.8266
  61   2.0000      -0.485522       -13.2117
  62   2.0000      -0.479866       -13.0578
  63   2.0000      -0.465909       -12.6780
  64   2.0000      -0.450114       -12.2482
  65   2.0000      -0.446373       -12.1464
  66   2.0000      -0.438569       -11.9341
  67   2.0000      -0.431760       -11.7488
  68   2.0000      -0.429684       -11.6923
  69   2.0000      -0.414769       -11.2864
  70   2.0000      -0.407252       -11.0819
  71   2.0000      -0.389718       -10.6048
  72   2.0000      -0.386675       -10.5220
  73   2.0000      -0.384651       -10.4669
  74   2.0000      -0.380458       -10.3528
  75   2.0000      -0.373503       -10.1635
  76   2.0000      -0.363835        -9.9004
  77   2.0000      -0.356546        -9.7021
  78   2.0000      -0.351214        -9.5570
  79   2.0000      -0.350120        -9.5273
  80   2.0000      -0.343333        -9.3426
  81   2.0000      -0.343129        -9.3370
  82   2.0000      -0.341807        -9.3010
  83   2.0000      -0.335108        -9.1187
  84   2.0000      -0.324474        -8.8294
  85   2.0000      -0.317532        -8.6405
  86   2.0000      -0.305599        -8.3158
  87   2.0000      -0.301410        -8.2018
  88   2.0000      -0.291306        -7.9268
  89   2.0000      -0.287422        -7.8212
  90   2.0000      -0.277414        -7.5488
  91   2.0000      -0.271433        -7.3861
  92   2.0000      -0.266404        -7.2492
  93   2.0000      -0.261525        -7.1165
  94   2.0000      -0.252619        -6.8741
  95   2.0000      -0.236250        -6.4287
  96   2.0000      -0.217337        -5.9140
  97   2.0000      -0.209904        -5.7118
  98   2.0000      -0.198579        -5.4036
  99   2.0000      -0.188797        -5.1374
 100   2.0000      -0.175979        -4.7886
 101   0.0000      -0.041264        -1.1229
 102   0.0000      -0.025745        -0.7006
 103   0.0000      -0.017812        -0.4847
 104   0.0000       0.006053         0.1647
 105   0.0000       0.021312         0.5799

MULLIKEN ATOMIC CHARGES
-----------------------
   0 C :   -0.292358
   1 C :   -0.009074
   2 O :   -0.330587
   3 P :    0.599773
   4 S :   -0.308272
   5 O :   -0.381634
   6 C :   -0.013382
   7 C :   -0.282625
   8 S :   -0.109805
   9 C :   -0.350935
  10 S :   -0.113283
  11 P :    0.611258
  12 S :   -0.305402
  13 O :   -0.372704
  14 C :   -0.006223
  15 C :   -0.301451
  16 O :   -0.371595
  17 C :   -0.001906
  18 C :   -0.325583
  19 H :    0.119754
  20 H :    0.107587
  21 H :    0.124618
  22 H :    0.097753
  23 H :    0.113076
  24 H :    0.107762
  25 H :    0.104698
  26 H :    0.116488
  27 H :    0.124385
  28 H :    0.113978
  29 H :    0.210030
  30 H :    0.182348
  31 H :    0.100941
  32 H :    0.126650
  33 H :    0.113746
  34 H :    0.109529
  35 H :    0.122939
  36 H :    0.102228
  37 H :    0.106544
  38 H :    0.113243
  39 H :    0.126012
  40 H :    0.121480
Sum of atomic charges:   -0.0000000

LOEWDIN ATOMIC CHARGES
----------------------
   0 C :   -0.359937
   1 C :   -0.113739
   2 O :   -0.218254
   3 P :    0.566724
   4 S :   -0.297053
   5 O :   -0.247683
   6 C :   -0.119899
   7 C :   -0.350577
   8 S :    0.056655
   9 C :   -0.476341
  10 S :    0.070752
  11 P :    0.567838
  12 S :   -0.303560
  13 O :   -0.236887
  14 C :   -0.117995
  15 C :   -0.365411
  16 O :   -0.246797
  17 C :   -0.124562
  18 C :   -0.370550
  19 H :    0.124342
  20 H :    0.128600
  21 H :    0.131108
  22 H :    0.102007
  23 H :    0.120125
  24 H :    0.111115
  25 H :    0.108435
  26 H :    0.125958
  27 H :    0.130504
  28 H :    0.131961
  29 H :    0.131881
  30 H :    0.138106
  31 H :    0.117212
  32 H :    0.111338
  33 H :    0.125112
  34 H :    0.129497
  35 H :    0.122645
  36 H :    0.117484
  37 H :    0.106277
  38 H :    0.131010
  39 H :    0.117301
  40 H :    0.125258

  Mayer bond orders larger than 0.100000
B(  0-C ,  1-C ) :   1.1637 B(  0-C , 19-H ) :   0.9418 B(  0-C , 20-H ) :   0.9400
B(  0-C , 21-H ) :   0.9462 B(  1-C ,  2-O ) :   0.8872 B(  1-C , 22-H ) :   0.9124
B(  1-C , 23-H ) :   0.9305 B(  2-O ,  3-P ) :   1.1641 B(  3-P ,  4-S ) :   1.6446
B(  3-P ,  5-O ) :   1.0827 B(  3-P ,  8-S ) :   0.9460 B(  4-S ,  8-S ) :   0.1059
B(  5-O ,  6-C ) :   0.9031 B(  6-C ,  7-C ) :   1.1594 B(  6-C , 24-H ) :   0.9113
B(  6-C , 25-H ) :   0.9275 B(  7-C , 26-H ) :   0.9506 B(  7-C , 27-H ) :   0.9505
B(  7-C , 28-H ) :   0.9416 B(  8-S ,  9-C ) :   1.0011 B(  9-C , 10-S ) :   0.9984
B(  9-C , 29-H ) :   0.8612 B(  9-C , 30-H ) :   0.9111 B( 10-S , 11-P ) :   0.9392
B( 10-S , 12-S ) :   0.1056 B( 11-P , 12-S ) :   1.6306 B( 11-P , 13-O ) :   1.1226
B( 11-P , 16-O ) :   1.0783 B( 13-O , 14-C ) :   0.8943 B( 14-C , 15-C ) :   1.1643
B( 14-C , 31-H ) :   0.9361 B( 14-C , 32-H ) :   0.9114 B( 15-C , 33-H ) :   0.9450
B( 15-C , 34-H ) :   0.9390 B( 15-C , 35-H ) :   0.9350 B( 16-O , 17-C ) :   0.9204
B( 17-C , 18-C ) :   1.1641 B( 17-C , 36-H ) :   0.9319 B( 17-C , 37-H ) :   0.9083
B( 18-C , 38-H ) :   0.9389 B( 18-C , 39-H ) :   0.9311 B( 18-C , 40-H ) :   0.9432

Dispersion correction           -0.067213315
FINAL SINGLE POINT ENERGY     -2929.513113155891

DIPOLE MOMENT
-------------

Method             : SCF
Type of density    : Electron Density
Multiplicity       :   1
Irrep              :   0
Energy             : -2929.6315793399444374 Eh
Relativity type    :
Basis              : AO
                                X                 Y                 Z
Electronic contribution:     -3.835261649      -2.661389658       6.984053940
Nuclear contribution   :      4.257060590       1.795110279      -6.899605734
                        -----------------------------------------
Total Dipole Moment    :      0.421798941      -0.866279379       0.084448206
                        -----------------------------------------
Magnitude (a.u.)       :      0.967205153
Magnitude (Debye)      :      2.458440124

Rotational constants in cm-1:             0.012677             0.005354             0.004879
Rotational constants in MHz :           380.032648           160.503580           146.260040

                             ****ORCA TERMINATED NORMALLY****
TOTAL RUN TIME: 0 days 0 hours 0 minutes 21 seconds 252 msec
