                         Program Version 6.0.0  -   RELEASE  -
|  1> ! r2scan-3c def2/J RI DEFGRID2 scfconv6 printgap
|  2> %output
|  3>     printlevel normal
|  4> end
|  5> * xyz 0 1
|  6> C 1.9999211938 0.6691196557 -3.1245785324
|  7> C 1.5722583408 -0.6411117945 -2.4934062451
|  8> O 2.4580691845 -1.0275363494 -1.4313374053
|  9> P 2.3425600995 -0.5524276904 0.0732810724
| 10> S 2.6031339036 1.3444418458 0.5165962141
| 11> O 3.4916946664 -1.5099052536 0.5909901131
| 12> C 4.2212967246 -1.2555680054 1.8016337682
| 13> C 3.3570972739 -1.4404303255 3.0334572517
| 14> S 0.5104006645 -1.4296640345 0.7258264634
| 15> C -0.0866782493 -0.117892158 1.8481944285
| 16> S -1.8900163904 0.0079014154 1.8562749478
| 17> P -2.1822332718 0.5285384747 -0.1574918138
| 18> S -0.8378856694 1.6557557741 -1.0482390643
| 19> O -3.6602917546 1.1143698205 -0.2286329272
| 20> C -3.9484645594 2.5131391507 -0.0615953855
| 21> C -3.6652970916 2.9871168297 1.349150594
| 22> O -2.3911491502 -0.9160938181 -0.7674055135
| 23> C -2.5133731673 -1.1499405958 -2.1886408528
| 24> C -2.0523310246 -2.5657608957 -2.4688482952
| 25> H 1.8753882906 1.486986652 -2.4167987877
| 26> H 3.0429257372 0.6169849453 -3.42389304
| 27> H 1.3812693528 0.8679944528 -3.9938184918
| 28> H 1.6349597969 -1.4650371271 -3.2071566651
| 29> H 0.5511133474 -0.5659976713 -2.1078484011
| 30> H 5.0383112435 -1.977538831 1.7698479859
| 31> H 4.6221966196 -0.2375642473 1.7627271387
| 32> H 2.6108846541 -0.648066121 3.0786980274
| 33> H 2.855242926 -2.4042807668 3.0001865972
| 34> H 3.9785558774 -1.3876222457 3.9216231898
| 35> H 0.3592648248 0.830336602 1.5325258774
| 36> H 0.188246472 -0.363489129 2.8712454512
| 37> H -3.3512892615 3.0775238533 -0.785220592
| 38> H -5.0073730952 2.5935969042 -0.310564238
| 39> H -4.010789456 4.0097911964 1.4615920155
| 40> H -4.1723583191 2.3509884088 2.0702289611
| 41> H -2.5940316243 2.9539388464 1.5450646847
| 42> H -3.5617446662 -1.0076519981 -2.4603521362
| 43> H -1.9027390831 -0.4114690804 -2.7209520691
| 44> H -2.1337495201 -2.7646948513 -3.5323594342
| 45> H -1.0193611404 -2.6943662751 -2.1551141738
| 46> H -2.6702816995 -3.2696193029 -1.9194635531
| 47> *
| 48>
| 49>                          ****END OF INPUT****

CARTESIAN COORDINATES (ANGSTROEM)
---------------------------------
  C      1.999921    0.669120   -3.124579
  C      1.572258   -0.641112   -2.493406
  O      2.458069   -1.027536   -1.431337
  P      2.342560   -0.552428    0.073281
  S      2.603134    1.344442    0.516596
  O      3.491695   -1.509905    0.590990
  C      4.221297   -1.255568    1.801634
  C      3.357097   -1.440430    3.033457
  S      0.510401   -1.429664    0.725826
  C     -0.086678   -0.117892    1.848194
  S     -1.890016    0.007901    1.856275
  P     -2.182233    0.528538   -0.157492
  S     -0.837886    1.655756   -1.048239
  O     -3.660292    1.114370   -0.228633
  C     -3.948465    2.513139   -0.061595
  C     -3.665297    2.987117    1.349151
  O     -2.391149   -0.916094   -0.767406
  C     -2.513373   -1.149941   -2.188641
  C     -2.052331   -2.565761   -2.468848
  H      1.875388    1.486987   -2.416799
  H      3.042926    0.616985   -3.423893
  H      1.381269    0.867994   -3.993818
  H      1.634960   -1.465037   -3.207157
  H      0.551113   -0.565998   -2.107848
  H      5.038311   -1.977539    1.769848
  H      4.622197   -0.237564    1.762727
  H      2.610885   -0.648066    3.078698
  H      2.855243   -2.404281    3.000187
  H      3.978556   -1.387622    3.921623
  H      0.359265    0.830337    1.532526
  H      0.188246   -0.363489    2.871245
  H     -3.351289    3.077524   -0.785221
  H     -5.007373    2.593597   -0.310564
  H     -4.010789    4.009791    1.461592
  H     -4.172358    2.350988    2.070229
  H     -2.594032    2.953939    1.545065
  H     -3.561745   -1.007652   -2.460352
  H     -1.902739   -0.411469   -2.720952
  H     -2.133750   -2.764695   -3.532359
  H     -1.019361   -2.694366   -2.155114
  H     -2.670282   -3.269619   -1.919464

 Total Charge           Charge          ....    0
 Multiplicity           Mult            ....    1
 Number of Electrons    NEL             ....  202
 Basis Dimension        Dim             ....  539

ORBITAL ENERGIES
----------------

  NO   OCC          E(Eh)            E(eV)
   0   2.0000     -88.581697     -2410.4305
   1   2.0000     -88.573330     -2410.2029
   2   2.0000     -88.520145     -2408.7556
   3   2.0000     -88.518428     -2408.7089
   4   2.0000     -76.915426     -2092.9751
   5   2.0000     -76.910699     -2092.8465
   6   2.0000     -18.994137      -516.8567
   7   2.0000     -18.989552      -516.7320
   8   2.0000     -18.987426      -516.6741
   9   2.0000     -18.983437      -516.5656
  10   2.0000     -10.106379      -275.0085
  11   2.0000     -10.100352      -274.8446
  12   2.0000     -10.099242      -274.8143
  13   2.0000     -10.094733      -274.6916
  14   2.0000     -10.092171      -274.6219
  15   2.0000     -10.033289      -273.0197
  16   2.0000     -10.029959      -272.9290
  17   2.0000     -10.028978      -272.9024
  18   2.0000     -10.017837      -272.5992
  19   2.0000      -7.876156      -214.3211
  20   2.0000      -7.867285      -214.0797
  21   2.0000      -7.814825      -212.6522
  22   2.0000      -7.813119      -212.6058
  23   2.0000      -6.593957      -179.4307
  24   2.0000      -6.588960      -179.2947
  25   2.0000      -5.823224      -158.4580
  26   2.0000      -5.819873      -158.3668
  27   2.0000      -5.814112      -158.2100
  28   2.0000      -5.813170      -158.1844
  29   2.0000      -5.811211      -158.1311
  30   2.0000      -5.804442      -157.9469
  31   2.0000      -5.762449      -156.8042
  32   2.0000      -5.760742      -156.7578
  33   2.0000      -5.755180      -156.6064
  34   2.0000      -5.754784      -156.5956
  35   2.0000      -5.753430      -156.5588
  36   2.0000      -5.753139      -156.5509
  37   2.0000      -4.739464      -128.9674
  38   2.0000      -4.738871      -128.9512
  39   2.0000      -4.737669      -128.9185
  40   2.0000      -4.734315      -128.8273
  41   2.0000      -4.734024      -128.8193
  42   2.0000      -4.732733      -128.7842
  43   2.0000      -1.050949       -28.5978
  44   2.0000      -1.048319       -28.5262
  45   2.0000      -1.011203       -27.5162
  46   2.0000      -1.005046       -27.3487
  47   2.0000      -0.801203       -21.8018
  48   2.0000      -0.758670       -20.6445
  49   2.0000      -0.749981       -20.4080
  50   2.0000      -0.733192       -19.9512
  51   2.0000      -0.723658       -19.6917
  52   2.0000      -0.712217       -19.3804
  53   2.0000      -0.686478       -18.6800
  54   2.0000      -0.665798       -18.1173
  55   2.0000      -0.631911       -17.1952
  56   2.0000      -0.624740       -17.0000
  57   2.0000      -0.608413       -16.5558
  58   2.0000      -0.596909       -16.2427
  59   2.0000      -0.590527       -16.0690
  60   2.0000      -0.530432       -14.4338
  61   2.0000      -0.519137       -14.1264
  62   2.0000      -0.494590       -13.4585
  63   2.0000      -0.485114       -13.2006
  64   2.0000      -0.465555       -12.6684
  65   2.0000      -0.464671       -12.6443
  66   2.0000      -0.459697       -12.5090
  67   2.0000      -0.449089       -12.2203
  68   2.0000      -0.446820       -12.1586
  69   2.0000      -0.435093       -11.8395
  70   2.0000      -0.429993       -11.7007
  71   2.0000      -0.417861       -11.3706
  72   2.0000      -0.410801       -11.1785
  73   2.0000      -0.406140       -11.0516
  74   2.0000      -0.400627       -10.9016
  75   2.0000      -0.388449       -10.5702
  76   2.0000      -0.380924       -10.3655
  77   2.0000      -0.373164       -10.1543
  78   2.0000      -0.367781       -10.0078
  79   2.0000      -0.364405        -9.9160
  80   2.0000      -0.360682        -9.8147
  81   2.0000      -0.356778        -9.7084
  82   2.0000      -0.354451        -9.6451
  83   2.0000      -0.349485        -9.5100
  84   2.0000      -0.342955        -9.3323
  85   2.0000      -0.329333        -8.9616
  86   2.0000      -0.324157        -8.8208
  87   2.0000      -0.312378        -8.5002
  88   2.0000      -0.309342        -8.4176
  89   2.0000      -0.305870        -8.3231
  90   2.0000      -0.299575        -8.1518
  91   2.0000      -0.291106        -7.9214
  92   2.0000      -0.281285        -7.6542
  93   2.0000      -0.280240        -7.6257
  94   2.0000      -0.271787        -7.3957
  95   2.0000      -0.248769        -6.7693
  96   2.0000      -0.235080        -6.3969
  97   2.0000      -0.225502        -6.1362
  98   2.0000      -0.215711        -5.8698
  99   2.0000      -0.213064        -5.7978
 100   2.0000      -0.205827        -5.6008
 101   0.0000      -0.046557        -1.2669
 102   0.0000      -0.035334        -0.9615
 103   0.0000      -0.012939        -0.3521
 104   0.0000       0.010089         0.2745
 105   0.0000       0.013869         0.3774

MULLIKEN ATOMIC CHARGES
-----------------------
   0 C :   -0.426921
   1 C :   -0.162118
   2 O :   -0.298356
   3 P :    0.693981
   4 S :   -0.454090
   5 O :   -0.288162
   6 C :   -0.144638
   7 C :   -0.454198
   8 S :   -0.145158
   9 C :   -0.232837
  10 S :   -0.107215
  11 P :    0.718079
  12 S :   -0.466861
  13 O :   -0.307895
  14 C :   -0.152641
  15 C :   -0.454217
  16 O :   -0.291307
  17 C :   -0.157653
  18 C :   -0.441650
  19 H :    0.176940
  20 H :    0.150213
  21 H :    0.143589
  22 H :    0.146773
  23 H :    0.165340
  24 H :    0.149568
  25 H :    0.174591
  26 H :    0.158224
  27 H :    0.165592
  28 H :    0.148280
  29 H :    0.226391
  30 H :    0.182754
  31 H :    0.173919
  32 H :    0.147440
  33 H :    0.148757
  34 H :    0.155858
  35 H :    0.177027
  36 H :    0.153207
  37 H :    0.167025
  38 H :    0.147345
  39 H :    0.159431
  40 H :    0.155593
Sum of atomic charges:    0.0000000

LOEWDIN ATOMIC CHARGES
----------------------
   0 C :   -0.405874
   1 C :    0.015043
   2 O :   -0.645731
   3 P :    0.388681
   4 S :   -0.121193
   5 O :   -0.655289
   6 C :    0.020983
   7 C :   -0.404703
   8 S :    0.144432
   9 C :   -0.421586
  10 S :    0.177867
  11 P :    0.372849
  12 S :   -0.115108
  13 O :   -0.660785
  14 C :    0.019225
  15 C :   -0.406383
  16 O :   -0.674930
  17 C :    0.020700
  18 C :   -0.388796
  19 H :    0.169477
  20 H :    0.159669
  21 H :    0.159064
  22 H :    0.176336
  23 H :    0.180629
  24 H :    0.180374
  25 H :    0.179599
  26 H :    0.158830
  27 H :    0.162878
  28 H :    0.159067
  29 H :    0.199672
  30 H :    0.176280
  31 H :    0.180119
  32 H :    0.179408
  33 H :    0.159940
  34 H :    0.160054
  35 H :    0.165539
  36 H :    0.173110
  37 H :    0.177724
  38 H :    0.159457
  39 H :    0.162138
  40 H :    0.161236

  Mayer bond orders larger than 0.100000
B(  0-C ,  1-C ) :   0.9454 B(  0-C , 19-H ) :   0.9542 B(  0-C , 20-H ) :   0.9724
B(  0-C , 21-H ) :   0.9654 B(  1-C ,  2-O ) :   0.7924 B(  1-C , 22-H ) :   0.9640
B(  1-C , 23-H ) :   0.9492 B(  2-O ,  3-P ) :   1.1380 B(  3-P ,  4-S ) :   1.7338
B(  3-P ,  5-O ) :   1.1248 B(  3-P ,  8-S ) :   1.0676 B(  5-O ,  6-C ) :   0.8195
B(  6-C ,  7-C ) :   0.9085 B(  6-C , 24-H ) :   0.9591 B(  6-C , 25-H ) :   0.9703
B(  7-C , 26-H ) :   0.9670 B(  7-C , 27-H ) :   0.9682 B(  7-C , 28-H ) :   0.9619
B(  8-S ,  9-C ) :   0.8877 B(  9-C , 10-S ) :   0.9288 B(  9-C , 29-H ) :   0.8995
B(  9-C , 30-H ) :   0.9127 B( 10-S , 11-P ) :   1.1011 B( 11-P , 12-S ) :   1.7317
B( 11-P , 13-O ) :   1.0488 B( 11-P , 16-O ) :   1.1903 B( 13-O , 14-C ) :   0.8187
B( 14-C , 15-C ) :   0.9204 B( 14-C , 31-H ) :   0.9666 B( 14-C , 32-H ) :   0.9587
B( 15-C , 33-H ) :   0.9585 B( 15-C , 34-H ) :   0.9685 B( 15-C , 35-H ) :   0.9617
B( 16-O , 17-C ) :   0.7497 B( 17-C , 18-C ) :   0.9502 B( 17-C , 36-H ) :   0.9428
B( 17-C , 37-H ) :   0.9585 B( 18-C , 38-H ) :   0.9686 B( 18-C , 39-H ) :   0.9677
B( 18-C , 40-H ) :   0.9699

Dispersion correction           -0.022042474
FINAL SINGLE POINT ENERGY     -2932.460860503918

DIPOLE MOMENT
-------------

Method             : SCF
Type of density    : Electron Density
Multiplicity       :   1
Irrep              :   0
Energy             : -2932.4854127099420111 Eh
Relativity type    :
Basis              : AO
                                X                 Y                 Z
Electronic contribution:      1.453378584      -0.039498187       5.634710110
Nuclear contribution   :     -2.299980898      -0.442941871      -5.658917777
                        -----------------------------------------
Total Dipole Moment    :     -0.846602314      -0.482440058      -0.024207667
                        -----------------------------------------
Magnitude (a.u.)       :      0.974715291
Magnitude (Debye)      :      2.477529378

Rotational constants in cm-1:             0.011458             0.005397             0.004883
Rotational constants in MHz :           343.502018           161.803993           146.394569

                             ****ORCA TERMINATED NORMALLY****
TOTAL RUN TIME: 0 days 0 hours 1 minutes 20 seconds 35 msec
