                         Program Version 6.0.0  -   RELEASE  -
|  1> ! r2scan-3c def2/J RI DEFGRID2 scfconv6 printgap
|  2> %output
|  3>     printlevel normal
|  4> end
|  5> %cpcm
|  6>     smd true
|  7>     smdsolvent "water"
|  8> end
|  9> * xyz 0 1
| 10> C 1.9999211938 0.6691196557 -3.1245785324
| 11> C 1.5722583408 -0.6411117945 -2.4934062451
| 12> O 2.4580691845 -1.0275363494 -1.4313374053
| 13> P 2.3425600995 -0.5524276904 0.0732810724
| 14> S 2.6031339036 1.3444418458 0.5165962141
| 15> O 3.4916946664 -1.5099052536 0.5909901131
| 16> C 4.2212967246 -1.2555680054 1.8016337682
| 17> C 3.3570972739 -1.4404303255 3.0334572517
| 18> S 0.5104006645 -1.4296640345 0.7258264634
| 19> C -0.0866782493 -0.117892158 1.8481944285
| 20> S -1.8900163904 0.0079014154 1.8562749478
| 21> P -2.1822332718 0.5285384747 -0.1574918138
| 22> S -0.8378856694 1.6557557741 -1.0482390643
| 23> O -3.6602917546 1.1143698205 -0.2286329272
| 24> C -3.9484645594 2.5131391507 -0.0615953855
| 25> C -3.6652970916 2.9871168297 1.349150594
| 26> O -2.3911491502 -0.9160938181 -0.7674055135
| 27> C -2.5133731673 -1.1499405958 -2.1886408528
| 28> C -2.0523310246 -2.5657608957 -2.4688482952
| 29> H 1.8753882906 1.486986652 -2.4167987877
| 30> H 3.0429257372 0.6169849453 -3.42389304
| 31> H 1.3812693528 0.8679944528 -3.9938184918
| 32> H 1.6349597969 -1.4650371271 -3.2071566651
| 33> H 0.5511133474 -0.5659976713 -2.1078484011
| 34> H 5.0383112435 -1.977538831 1.7698479859
| 35> H 4.6221966196 -0.2375642473 1.7627271387
| 36> H 2.6108846541 -0.648066121 3.0786980274
| 37> H 2.855242926 -2.4042807668 3.0001865972
| 38> H 3.9785558774 -1.3876222457 3.9216231898
| 39> H 0.3592648248 0.830336602 1.5325258774
| 40> H 0.188246472 -0.363489129 2.8712454512
| 41> H -3.3512892615 3.0775238533 -0.785220592
| 42> H -5.0073730952 2.5935969042 -0.310564238
| 43> H -4.010789456 4.0097911964 1.4615920155
| 44> H -4.1723583191 2.3509884088 2.0702289611
| 45> H -2.5940316243 2.9539388464 1.5450646847
| 46> H -3.5617446662 -1.0076519981 -2.4603521362
| 47> H -1.9027390831 -0.4114690804 -2.7209520691
| 48> H -2.1337495201 -2.7646948513 -3.5323594342
| 49> H -1.0193611404 -2.6943662751 -2.1551141738
| 50> H -2.6702816995 -3.2696193029 -1.9194635531
| 51> *
| 52>
| 53>                          ****END OF INPUT****

CARTESIAN COORDINATES (ANGSTROEM)
---------------------------------
  C      1.999921    0.669120   -3.124579
  C      1.572258   -0.641112   -2.493406
  O      2.458069   -1.027536   -1.431337
  P      2.342560   -0.552428    0.073281
  S      2.603134    1.344442    0.516596
  O      3.491695   -1.509905    0.590990
  C      4.221297   -1.255568    1.801634
  C      3.357097   -1.440430    3.033457
  S      0.510401   -1.429664    0.725826
  C     -0.086678   -0.117892    1.848194
  S     -1.890016    0.007901    1.856275
  P     -2.182233    0.528538   -0.157492
  S     -0.837886    1.655756   -1.048239
  O     -3.660292    1.114370   -0.228633
  C     -3.948465    2.513139   -0.061595
  C     -3.665297    2.987117    1.349151
  O     -2.391149   -0.916094   -0.767406
  C     -2.513373   -1.149941   -2.188641
  C     -2.052331   -2.565761   -2.468848
  H      1.875388    1.486987   -2.416799
  H      3.042926    0.616985   -3.423893
  H      1.381269    0.867994   -3.993818
  H      1.634960   -1.465037   -3.207157
  H      0.551113   -0.565998   -2.107848
  H      5.038311   -1.977539    1.769848
  H      4.622197   -0.237564    1.762727
  H      2.610885   -0.648066    3.078698
  H      2.855243   -2.404281    3.000187
  H      3.978556   -1.387622    3.921623
  H      0.359265    0.830337    1.532526
  H      0.188246   -0.363489    2.871245
  H     -3.351289    3.077524   -0.785221
  H     -5.007373    2.593597   -0.310564
  H     -4.010789    4.009791    1.461592
  H     -4.172358    2.350988    2.070229
  H     -2.594032    2.953939    1.545065
  H     -3.561745   -1.007652   -2.460352
  H     -1.902739   -0.411469   -2.720952
  H     -2.133750   -2.764695   -3.532359
  H     -1.019361   -2.694366   -2.155114
  H     -2.670282   -3.269619   -1.919464

 Total Charge           Charge          ....    0
 Multiplicity           Mult            ....    1
 Number of Electrons    NEL             ....  202
 Basis Dimension        Dim             ....  539

ORBITAL ENERGIES
----------------

  NO   OCC          E(Eh)            E(eV)
   0   2.0000     -88.584013     -2410.4936
   1   2.0000     -88.577761     -2410.3234
   2   2.0000     -88.528395     -2408.9801
   3   2.0000     -88.524424     -2408.8720
   4   2.0000     -76.918881     -2093.0692
   5   2.0000     -76.917934     -2093.0434
   6   2.0000     -18.995098      -516.8829
   7   2.0000     -18.994589      -516.8690
   8   2.0000     -18.990815      -516.7664
   9   2.0000     -18.990566      -516.7596
  10   2.0000     -10.104571      -274.9594
  11   2.0000     -10.088996      -274.5355
  12   2.0000     -10.088832      -274.5311
  13   2.0000     -10.088561      -274.5237
  14   2.0000     -10.087830      -274.5038
  15   2.0000     -10.018881      -272.6276
  16   2.0000     -10.018756      -272.6242
  17   2.0000     -10.018341      -272.6129
  18   2.0000     -10.015491      -272.5354
  19   2.0000      -7.878443      -214.3833
  20   2.0000      -7.871713      -214.2002
  21   2.0000      -7.823370      -212.8847
  22   2.0000      -7.819351      -212.7754
  23   2.0000      -6.597244      -179.5201
  24   2.0000      -6.596539      -179.5010
  25   2.0000      -5.825487      -158.5196
  26   2.0000      -5.822139      -158.4285
  27   2.0000      -5.818550      -158.3308
  28   2.0000      -5.815668      -158.2524
  29   2.0000      -5.815520      -158.2483
  30   2.0000      -5.808846      -158.0667
  31   2.0000      -5.770931      -157.0350
  32   2.0000      -5.766933      -156.9262
  33   2.0000      -5.763709      -156.8385
  34   2.0000      -5.763369      -156.8292
  35   2.0000      -5.759719      -156.7299
  36   2.0000      -5.759293      -156.7183
  37   2.0000      -4.742597      -129.0526
  38   2.0000      -4.742289      -129.0443
  39   2.0000      -4.742001      -129.0364
  40   2.0000      -4.741456      -129.0216
  41   2.0000      -4.741047      -129.0104
  42   2.0000      -4.740310      -128.9904
  43   2.0000      -1.055735       -28.7280
  44   2.0000      -1.051361       -28.6090
  45   2.0000      -1.011422       -27.5222
  46   2.0000      -1.010982       -27.5102
  47   2.0000      -0.802120       -21.8268
  48   2.0000      -0.756276       -20.5793
  49   2.0000      -0.745458       -20.2849
  50   2.0000      -0.723101       -19.6766
  51   2.0000      -0.718699       -19.5568
  52   2.0000      -0.712268       -19.3818
  53   2.0000      -0.689438       -18.7606
  54   2.0000      -0.671627       -18.2759
  55   2.0000      -0.631148       -17.1744
  56   2.0000      -0.622506       -16.9393
  57   2.0000      -0.600655       -16.3446
  58   2.0000      -0.594437       -16.1754
  59   2.0000      -0.586902       -15.9704
  60   2.0000      -0.525208       -14.2916
  61   2.0000      -0.518102       -14.0983
  62   2.0000      -0.489770       -13.3273
  63   2.0000      -0.485942       -13.2231
  64   2.0000      -0.467416       -12.7190
  65   2.0000      -0.463926       -12.6241
  66   2.0000      -0.454767       -12.3748
  67   2.0000      -0.448895       -12.2151
  68   2.0000      -0.439049       -11.9471
  69   2.0000      -0.432531       -11.7698
  70   2.0000      -0.425314       -11.5734
  71   2.0000      -0.420152       -11.4329
  72   2.0000      -0.406790       -11.0693
  73   2.0000      -0.404508       -11.0072
  74   2.0000      -0.395641       -10.7659
  75   2.0000      -0.387477       -10.5438
  76   2.0000      -0.380088       -10.3427
  77   2.0000      -0.364200        -9.9104
  78   2.0000      -0.361547        -9.8382
  79   2.0000      -0.357039        -9.7155
  80   2.0000      -0.356324        -9.6961
  81   2.0000      -0.350885        -9.5481
  82   2.0000      -0.346710        -9.4345
  83   2.0000      -0.344532        -9.3752
  84   2.0000      -0.342300        -9.3145
  85   2.0000      -0.327010        -8.8984
  86   2.0000      -0.323889        -8.8135
  87   2.0000      -0.308588        -8.3971
  88   2.0000      -0.306125        -8.3301
  89   2.0000      -0.303800        -8.2668
  90   2.0000      -0.300445        -8.1755
  91   2.0000      -0.287131        -7.8132
  92   2.0000      -0.283846        -7.7238
  93   2.0000      -0.279585        -7.6079
  94   2.0000      -0.277589        -7.5536
  95   2.0000      -0.251617        -6.8469
  96   2.0000      -0.240758        -6.5514
  97   2.0000      -0.233466        -6.3529
  98   2.0000      -0.220838        -6.0093
  99   2.0000      -0.220597        -6.0027
 100   2.0000      -0.213414        -5.8073
 101   0.0000      -0.049433        -1.3451
 102   0.0000      -0.042355        -1.1525
 103   0.0000      -0.015656        -0.4260
 104   0.0000       0.003565         0.0970
 105   0.0000       0.013969         0.3801

MULLIKEN ATOMIC CHARGES
-----------------------
   0 C :   -0.481786
   1 C :   -0.142116
   2 O :   -0.330442
   3 P :    0.716563
   4 S :   -0.497538
   5 O :   -0.324745
   6 C :   -0.144405
   7 C :   -0.484433
   8 S :   -0.156211
   9 C :   -0.227245
  10 S :   -0.120400
  11 P :    0.744030
  12 S :   -0.510324
  13 O :   -0.332592
  14 C :   -0.152708
  15 C :   -0.488812
  16 O :   -0.322210
  17 C :   -0.134336
  18 C :   -0.491898
  19 H :    0.168349
  20 H :    0.164532
  21 H :    0.170737
  22 H :    0.174763
  23 H :    0.171842
  24 H :    0.174235
  25 H :    0.176751
  26 H :    0.169502
  27 H :    0.171321
  28 H :    0.172541
  29 H :    0.220027
  30 H :    0.229676
  31 H :    0.177743
  32 H :    0.174201
  33 H :    0.173025
  34 H :    0.169849
  35 H :    0.172291
  36 H :    0.173496
  37 H :    0.172407
  38 H :    0.171151
  39 H :    0.166422
  40 H :    0.166745
Sum of atomic charges:    0.0000000

LOEWDIN ATOMIC CHARGES
----------------------
   0 C :   -0.412681
   1 C :    0.021648
   2 O :   -0.664356
   3 P :    0.391436
   4 S :   -0.151301
   5 O :   -0.675358
   6 C :    0.024487
   7 C :   -0.405762
   8 S :    0.143020
   9 C :   -0.412877
  10 S :    0.174304
  11 P :    0.376329
  12 S :   -0.140911
  13 O :   -0.672944
  14 C :    0.023793
  15 C :   -0.409668
  16 O :   -0.691190
  17 C :    0.027312
  18 C :   -0.393013
  19 H :    0.162971
  20 H :    0.162507
  21 H :    0.168314
  22 H :    0.188595
  23 H :    0.184521
  24 H :    0.190558
  25 H :    0.180686
  26 H :    0.161507
  27 H :    0.164671
  28 H :    0.168197
  29 H :    0.198125
  30 H :    0.194009
  31 H :    0.181130
  32 H :    0.190558
  33 H :    0.168623
  34 H :    0.163699
  35 H :    0.161414
  36 H :    0.181390
  37 H :    0.181766
  38 H :    0.169200
  39 H :    0.162507
  40 H :    0.162783

  Mayer bond orders larger than 0.100000
B(  0-C ,  1-C ) :   0.9237 B(  0-C , 19-H ) :   0.9596 B(  0-C , 20-H ) :   0.9712
B(  0-C , 21-H ) :   0.9615 B(  1-C ,  2-O ) :   0.7852 B(  1-C , 22-H ) :   0.9550
B(  1-C , 23-H ) :   0.9453 B(  2-O ,  3-P ) :   1.1378 B(  3-P ,  4-S ) :   1.7103
B(  3-P ,  5-O ) :   1.1263 B(  3-P ,  8-S ) :   1.0860 B(  5-O ,  6-C ) :   0.8075
B(  6-C ,  7-C ) :   0.9021 B(  6-C , 24-H ) :   0.9491 B(  6-C , 25-H ) :   0.9656
B(  7-C , 26-H ) :   0.9626 B(  7-C , 27-H ) :   0.9668 B(  7-C , 28-H ) :   0.9563
B(  8-S ,  9-C ) :   0.8796 B(  9-C , 10-S ) :   0.9218 B(  9-C , 29-H ) :   0.9036
B(  9-C , 30-H ) :   0.8971 B( 10-S , 11-P ) :   1.1099 B( 11-P , 12-S ) :   1.6994
B( 11-P , 13-O ) :   1.0551 B( 11-P , 16-O ) :   1.1946 B( 13-O , 14-C ) :   0.8078
B( 14-C , 15-C ) :   0.9081 B( 14-C , 31-H ) :   0.9651 B( 14-C , 32-H ) :   0.9492
B( 15-C , 33-H ) :   0.9533 B( 15-C , 34-H ) :   0.9656 B( 15-C , 35-H ) :   0.9632
B( 16-O , 17-C ) :   0.7452 B( 17-C , 18-C ) :   0.9394 B( 17-C , 36-H ) :   0.9345
B( 17-C , 37-H ) :   0.9518 B( 18-C , 38-H ) :   0.9616 B( 18-C , 39-H ) :   0.9678
B( 18-C , 40-H ) :   0.9692

Dispersion correction           -0.022042474
FINAL SINGLE POINT ENERGY     -2932.469195136647

DIPOLE MOMENT
-------------

Method             : SCF
Type of density    : Electron Density
Multiplicity       :   1
Irrep              :   0
Energy             : -2932.4937473426712131 Eh
Relativity type    :
Basis              : AO
                                X                 Y                 Z
Electronic contribution:      1.134531983      -0.209354373       5.707294824
Nuclear contribution   :     -2.299980898      -0.442941871      -5.658917777
                        -----------------------------------------
Total Dipole Moment    :     -1.165448916      -0.652296244       0.048377047
                        -----------------------------------------
Magnitude (a.u.)       :      1.336451235
Magnitude (Debye)      :      3.396989076

Rotational constants in cm-1:             0.011458             0.005397             0.004883
Rotational constants in MHz :           343.502018           161.803993           146.394569

                             ****ORCA TERMINATED NORMALLY****
TOTAL RUN TIME: 0 days 0 hours 1 minutes 49 seconds 328 msec
