                         Program Version 6.0.1  -  RELEASE   -
|  1> ! pbe def2-sv(p) def2/J RI DEFGRID1 loosescf d4 GCP(DFT/SV(P)) printgap
|  2> %output
|  3>     printlevel normal
|  4> end
|  5> * xyz 0 1
|  6> C 2.3105074824 -3.6098633188 -0.3653774724
|  7> C 2.9745898389 -2.2806126868 -0.0446801944
|  8> O 2.1914019842 -1.1815211037 -0.5476151874
|  9> C 2.3271526711 -0.8464823812 -1.8222819683
| 10> O 3.1206142048 -1.3591262524 -2.5776890888
| 11> C 1.3925328756 0.2730309584 -2.2298429063
| 12> C 0.3447156388 0.6037420204 -1.17770097
| 13> H -0.244314444 1.4722630015 -1.4930747576
| 14> C 0.9469047418 0.9316158639 0.1747853184
| 15> O 0.4792731588 0.5124140936 1.2142044531
| 16> O 1.9758873292 1.7296892889 0.0758043848
| 17> C 2.5734309246 2.223481347 1.2935630052
| 18> C 1.8549706394 3.477021031 1.7648999793
| 19> S -0.8231482975 -0.7791576033 -0.9337843892
| 20> P -2.039098063 0.1129786388 0.5612645477
| 21> S -2.134632458 2.0679993951 0.5966029553
| 22> O -3.4580104688 -0.5538572512 0.1874800485
| 23> C -4.158779832 -0.1966681534 -1.0058295224
| 24> O -1.8457555268 -0.5640124055 1.975596927
| 25> C -1.5267923488 -1.9578727569 2.1317434754
| 26> H 1.2882632689 -3.6178037739 0.004363393
| 27> H 2.2957732736 -3.7681105396 -1.4409712543
| 28> H 2.8694918104 -4.412540811 0.1038452116
| 29> H 3.9725182378 -2.2272337733 -0.4889805241
| 30> H 3.0268788756 -2.1084801717 1.0310354896
| 31> H 0.9135749995 -0.0161065457 -3.1665513105
| 32> H 2.0017937952 1.1593189176 -2.4224439185
| 33> H 2.5232703405 1.4371676098 2.0512771792
| 34> H 3.608461487 2.4316593644 1.022929318
| 35> H 1.8922086709 4.2438300451 0.9963329391
| 36> H 0.8117065194 3.253037201 1.9820567137
| 37> H 2.3304104237 3.8478962656 2.6666998857
| 38> H -4.2111207894 0.8897114117 -1.0975080825
| 39> H -5.1556990045 -0.6160924765 -0.8980201733
| 40> H -3.6540938985 -0.6204375681 -1.8741472679
| 41> H -1.6630090491 -2.1635947015 3.19025467
| 42> H -0.4888350272 -2.1212657718 1.8413333271
| 43> H -2.1940043192 -2.5710728733 1.5276327044
| 44> *
| 45>
| 46>                          ****END OF INPUT****

CARTESIAN COORDINATES (ANGSTROEM)
---------------------------------
  C      2.310507   -3.609863   -0.365377
  C      2.974590   -2.280613   -0.044680
  O      2.191402   -1.181521   -0.547615
  C      2.327153   -0.846482   -1.822282
  O      3.120614   -1.359126   -2.577689
  C      1.392533    0.273031   -2.229843
  C      0.344716    0.603742   -1.177701
  H     -0.244314    1.472263   -1.493075
  C      0.946905    0.931616    0.174785
  O      0.479273    0.512414    1.214204
  O      1.975887    1.729689    0.075804
  C      2.573431    2.223481    1.293563
  C      1.854971    3.477021    1.764900
  S     -0.823148   -0.779158   -0.933784
  P     -2.039098    0.112979    0.561265
  S     -2.134632    2.067999    0.596603
  O     -3.458010   -0.553857    0.187480
  C     -4.158780   -0.196668   -1.005830
  O     -1.845756   -0.564012    1.975597
  C     -1.526792   -1.957873    2.131743
  H      1.288263   -3.617804    0.004363
  H      2.295773   -3.768111   -1.440971
  H      2.869492   -4.412541    0.103845
  H      3.972518   -2.227234   -0.488981
  H      3.026879   -2.108480    1.031035
  H      0.913575   -0.016107   -3.166551
  H      2.001794    1.159319   -2.422444
  H      2.523270    1.437168    2.051277
  H      3.608461    2.431659    1.022929
  H      1.892209    4.243830    0.996333
  H      0.811707    3.253037    1.982057
  H      2.330410    3.847896    2.666700
  H     -4.211121    0.889711   -1.097508
  H     -5.155699   -0.616092   -0.898020
  H     -3.654094   -0.620438   -1.874147
  H     -1.663009   -2.163595    3.190255
  H     -0.488835   -2.121266    1.841333
  H     -2.194004   -2.571073    1.527633

 Total Charge           Charge          ....    0
 Multiplicity           Mult            ....    1
 Number of Electrons    NEL             ....  174
 Basis Dimension        Dim             ....  316

ORBITAL ENERGIES
----------------

  NO   OCC          E(Eh)            E(eV)
   0   2.0000     -88.038484     -2395.6490
   1   2.0000     -87.974030     -2393.8951
   2   2.0000     -76.420380     -2079.5043
   3   2.0000     -18.816275      -512.0169
   4   2.0000     -18.813131      -511.9313
   5   2.0000     -18.783036      -511.1124
   6   2.0000     -18.779236      -511.0090
   7   2.0000     -18.746218      -510.1105
   8   2.0000     -18.743519      -510.0371
   9   2.0000     -10.021541      -272.7000
  10   2.0000     -10.019127      -272.6343
  11   2.0000      -9.955307      -270.8977
  12   2.0000      -9.954703      -270.8812
  13   2.0000      -9.948868      -270.7225
  14   2.0000      -9.944593      -270.6061
  15   2.0000      -9.934823      -270.3403
  16   2.0000      -9.922927      -270.0166
  17   2.0000      -9.891368      -269.1578
  18   2.0000      -9.886241      -269.0183
  19   2.0000      -7.683167      -209.0696
  20   2.0000      -7.619372      -207.3337
  21   2.0000      -6.416379      -174.5986
  22   2.0000      -5.710936      -155.4025
  23   2.0000      -5.707899      -155.3198
  24   2.0000      -5.700097      -155.1075
  25   2.0000      -5.648545      -153.7047
  26   2.0000      -5.640032      -153.4731
  27   2.0000      -5.639139      -153.4488
  28   2.0000      -4.638989      -126.2333
  29   2.0000      -4.638560      -126.2216
  30   2.0000      -4.636750      -126.1724
  31   2.0000      -1.026454       -27.9312
  32   2.0000      -1.017671       -27.6922
  33   2.0000      -0.976203       -26.5638
  34   2.0000      -0.931797       -25.3555
  35   2.0000      -0.926669       -25.2160
  36   2.0000      -0.922523       -25.1031
  37   2.0000      -0.771392       -20.9906
  38   2.0000      -0.713482       -19.4148
  39   2.0000      -0.710083       -19.3223
  40   2.0000      -0.690168       -18.7804
  41   2.0000      -0.661329       -17.9957
  42   2.0000      -0.626867       -17.0579
  43   2.0000      -0.622752       -16.9459
  44   2.0000      -0.613917       -16.7055
  45   2.0000      -0.602468       -16.3940
  46   2.0000      -0.571292       -15.5457
  47   2.0000      -0.513053       -13.9609
  48   2.0000      -0.507094       -13.7987
  49   2.0000      -0.502637       -13.6775
  50   2.0000      -0.486598       -13.2410
  51   2.0000      -0.467852       -12.7309
  52   2.0000      -0.464486       -12.6393
  53   2.0000      -0.450657       -12.2630
  54   2.0000      -0.441889       -12.0244
  55   2.0000      -0.430880       -11.7248
  56   2.0000      -0.423188       -11.5155
  57   2.0000      -0.419802       -11.4234
  58   2.0000      -0.409765       -11.1503
  59   2.0000      -0.406727       -11.0676
  60   2.0000      -0.405400       -11.0315
  61   2.0000      -0.398666       -10.8483
  62   2.0000      -0.394751       -10.7417
  63   2.0000      -0.391715       -10.6591
  64   2.0000      -0.380655       -10.3582
  65   2.0000      -0.374418       -10.1884
  66   2.0000      -0.363078        -9.8798
  67   2.0000      -0.355571        -9.6756
  68   2.0000      -0.349681        -9.5153
  69   2.0000      -0.345307        -9.3963
  70   2.0000      -0.334683        -9.1072
  71   2.0000      -0.331956        -9.0330
  72   2.0000      -0.328585        -8.9412
  73   2.0000      -0.314771        -8.5654
  74   2.0000      -0.305215        -8.3053
  75   2.0000      -0.301134        -8.1943
  76   2.0000      -0.291614        -7.9352
  77   2.0000      -0.287821        -7.8320
  78   2.0000      -0.273425        -7.4403
  79   2.0000      -0.269204        -7.3254
  80   2.0000      -0.261672        -7.1205
  81   2.0000      -0.251529        -6.8444
  82   2.0000      -0.235109        -6.3976
  83   2.0000      -0.229955        -6.2574
  84   2.0000      -0.219004        -5.9594
  85   2.0000      -0.195629        -5.3233
  86   2.0000      -0.188916        -5.1407
  87   0.0000      -0.042048        -1.1442
  88   0.0000      -0.029541        -0.8039
  89   0.0000      -0.028074        -0.7639
  90   0.0000       0.006422         0.1747
  91   0.0000       0.024303         0.6613

MULLIKEN ATOMIC CHARGES
-----------------------
   0 C :   -0.316984
   1 C :   -0.005293
   2 O :   -0.236248
   3 C :    0.112260
   4 O :   -0.197718
   5 C :   -0.105502
   6 C :   -0.291496
   7 H :    0.151749
   8 C :    0.236407
   9 O :   -0.193569
  10 O :   -0.230282
  11 C :   -0.011780
  12 C :   -0.309223
  13 S :   -0.103195
  14 P :    0.615252
  15 S :   -0.333039
  16 O :   -0.389332
  17 C :   -0.098525
  18 O :   -0.351608
  19 C :   -0.107494
  20 H :    0.122915
  21 H :    0.129221
  22 H :    0.114297
  23 H :    0.110247
  24 H :    0.105818
  25 H :    0.136012
  26 H :    0.143634
  27 H :    0.111243
  28 H :    0.104358
  29 H :    0.114400
  30 H :    0.143815
  31 H :    0.113077
  32 H :    0.113389
  33 H :    0.120838
  34 H :    0.107352
  35 H :    0.128482
  36 H :    0.131269
  37 H :    0.115253
Sum of atomic charges:   -0.0000000

LOEWDIN ATOMIC CHARGES
----------------------
   0 C :   -0.356842
   1 C :   -0.108177
   2 O :   -0.049448
   3 C :    0.033008
   4 O :   -0.160869
   5 C :   -0.248184
   6 C :   -0.271786
   7 H :    0.145082
   8 C :    0.011512
   9 O :   -0.162179
  10 O :   -0.044796
  11 C :   -0.106419
  12 C :   -0.356792
  13 S :    0.091916
  14 P :    0.589961
  15 S :   -0.327080
  16 O :   -0.268735
  17 C :   -0.221018
  18 O :   -0.231036
  19 C :   -0.208295
  20 H :    0.124912
  21 H :    0.131706
  22 H :    0.131386
  23 H :    0.120853
  24 H :    0.119331
  25 H :    0.150019
  26 H :    0.158294
  27 H :    0.121428
  28 H :    0.118306
  29 H :    0.125671
  30 H :    0.136177
  31 H :    0.131105
  32 H :    0.108463
  33 H :    0.120027
  34 H :    0.103630
  35 H :    0.125520
  36 H :    0.113028
  37 H :    0.110321

  Mayer bond orders larger than 0.100000
B(  0-C ,  1-C ) :   1.1752 B(  0-C , 20-H ) :   0.9452 B(  0-C , 21-H ) :   0.9440
B(  0-C , 22-H ) :   0.9430 B(  1-C ,  2-O ) :   0.9096 B(  1-C , 23-H ) :   0.9167
B(  1-C , 24-H ) :   0.9343 B(  2-O ,  3-C ) :   1.2167 B(  3-C ,  4-O ) :   2.0561
B(  3-C ,  5-C ) :   1.0080 B(  5-C ,  6-C ) :   1.0600 B(  5-C , 25-H ) :   0.8979
B(  5-C , 26-H ) :   0.8776 B(  6-C ,  7-H ) :   0.8451 B(  6-C ,  8-C ) :   0.8752
B(  6-C , 13-S ) :   1.0311 B(  8-C ,  9-O ) :   1.9831 B(  8-C , 10-O ) :   1.2610
B( 10-O , 11-C ) :   0.9004 B( 11-C , 12-C ) :   1.1791 B( 11-C , 27-H ) :   0.9133
B( 11-C , 28-H ) :   0.9366 B( 12-C , 29-H ) :   0.9486 B( 12-C , 30-H ) :   0.9364
B( 12-C , 31-H ) :   0.9425 B( 13-S , 14-P ) :   0.9402 B( 13-S , 15-S ) :   0.1113
B( 14-P , 15-S ) :   1.6098 B( 14-P , 16-O ) :   1.0578 B( 14-P , 18-O ) :   1.1339
B( 16-O , 17-C ) :   0.9415 B( 17-C , 32-H ) :   0.9336 B( 17-C , 33-H ) :   0.9589
B( 17-C , 34-H ) :   0.9453 B( 18-O , 19-C ) :   0.9238 B( 19-C , 35-H ) :   0.9579
B( 19-C , 36-H ) :   0.9407 B( 19-C , 37-H ) :   0.9450

Dispersion correction           -0.053168109
FINAL SINGLE POINT ENERGY     -1979.016638814407

DIPOLE MOMENT
-------------

Method             : SCF
Type of density    : Electron Density
Multiplicity       :   1
Irrep              :   0
Energy             : -1979.1460631479121730 Eh
Relativity type    :
Basis              : AO
                                X                 Y                 Z
Electronic contribution:    -10.460998264       4.636937070      -2.701233687
Nuclear contribution   :     11.253786792      -5.326546550       2.830555469
                        -----------------------------------------
Total Dipole Moment    :      0.792788528      -0.689609480       0.129321782
                        -----------------------------------------
Magnitude (a.u.)       :      1.058677953
Magnitude (Debye)      :      2.690945504

Rotational constants in cm-1:             0.012472             0.007951             0.006394
Rotational constants in MHz :           373.904443           238.362115           191.674447

                             ****ORCA TERMINATED NORMALLY****
TOTAL RUN TIME: 0 days 0 hours 0 minutes 45 seconds 328 msec
