                         Program Version 6.0.0  -   RELEASE  -
|  1> ! pbe def2-sv(p) def2/J RI DEFGRID1 loosescf d4 GCP(DFT/SV(P)) printgap
|  2> %output
|  3>     printlevel normal
|  4> end
|  5> * xyz 0 1
|  6> C 1.7039185212 -2.9439813785 0.5480310809
|  7> C 1.5695381992 -1.7032893599 1.4075912992
|  8> O 2.5837519701 -0.7266796486 1.1242352482
|  9> P 2.6734083392 0.185677679 -0.1793035232
| 10> S 3.092697926 -0.6651070607 -1.8932895881
| 11> O 3.8377388484 1.1635685491 0.2217851196
| 12> C 4.090616643 1.6964036797 1.5457177989
| 13> C 2.9502386414 2.5506222142 2.0561468446
| 14> S 0.8705812928 1.3449495087 -0.1873799924
| 15> C 0.10676639 0.6749501877 -1.6759173784
| 16> S -0.7252432943 -0.9156261135 -1.3956685343
| 17> P -2.2916858816 -0.1541724916 -0.2085642554
| 18> S -3.0234052184 1.5969497973 -0.7169454845
| 19> O -1.6751397387 -0.2715189484 1.2417517598
| 20> C -2.1966104532 0.45973612 2.378794992
| 21> C -1.0786636113 1.2643963454 3.0104204868
| 22> O -3.3588772658 -1.3311617127 -0.1865721809
| 23> C -4.3070877761 -1.5332914713 -1.2534670382
| 24> C -5.5081311915 -2.2590786658 -0.6810458347
| 25> H 1.5227289129 -2.7060239937 -0.4984947747
| 26> H 2.7041661662 -3.3593031588 0.6404947006
| 27> H 0.9752924343 -3.6812523162 0.8695760611
| 28> H 1.7268969041 -1.9377556856 2.4625684571
| 29> H 0.5838831927 -1.2458553609 1.2785499195
| 30> H 4.2865147922 0.8589856351 2.2175428017
| 31> H 5.0004143504 2.2820403499 1.4057077391
| 32> H 3.2328607214 2.989326847 3.007998844
| 33> H 2.7232118108 3.3443155075 1.3489751115
| 34> H 2.056942236 1.9449093849 2.1977591011
| 35> H 0.8742775645 0.4934118118 -2.4292766171
| 36> H -0.6262355941 1.4077424886 -2.012216629
| 37> H -3.0061446517 1.1138064674 2.0407196152
| 38> H -2.5935690431 -0.2899842728 3.0651741294
| 39> H -0.7027066613 1.9991501007 2.3019187193
| 40> H -1.4618283573 1.7768601276 3.8867904153
| 41> H -0.265171677 0.6075813605 3.3053544185
| 42> H -4.5877150508 -0.5567046022 -1.6627390868
| 43> H -3.817535131 -2.1225261819 -2.0329534241
| 44> H -6.2212953453 -2.4491767357 -1.476383845
| 45> H -5.1958929466 -3.2026878943 -0.243306892
| 46> H -5.9806489008 -1.6529446116 0.0868040349
| 47> *
| 48>
| 49>                          ****END OF INPUT****

CARTESIAN COORDINATES (ANGSTROEM)
---------------------------------
  C      1.703919   -2.943981    0.548031
  C      1.569538   -1.703289    1.407591
  O      2.583752   -0.726680    1.124235
  P      2.673408    0.185678   -0.179304
  S      3.092698   -0.665107   -1.893290
  O      3.837739    1.163569    0.221785
  C      4.090617    1.696404    1.545718
  C      2.950239    2.550622    2.056147
  S      0.870581    1.344950   -0.187380
  C      0.106766    0.674950   -1.675917
  S     -0.725243   -0.915626   -1.395669
  P     -2.291686   -0.154172   -0.208564
  S     -3.023405    1.596950   -0.716945
  O     -1.675140   -0.271519    1.241752
  C     -2.196610    0.459736    2.378795
  C     -1.078664    1.264396    3.010420
  O     -3.358877   -1.331162   -0.186572
  C     -4.307088   -1.533291   -1.253467
  C     -5.508131   -2.259079   -0.681046
  H      1.522729   -2.706024   -0.498495
  H      2.704166   -3.359303    0.640495
  H      0.975292   -3.681252    0.869576
  H      1.726897   -1.937756    2.462568
  H      0.583883   -1.245855    1.278550
  H      4.286515    0.858986    2.217543
  H      5.000414    2.282040    1.405708
  H      3.232861    2.989327    3.007999
  H      2.723212    3.344316    1.348975
  H      2.056942    1.944909    2.197759
  H      0.874278    0.493412   -2.429277
  H     -0.626236    1.407742   -2.012217
  H     -3.006145    1.113806    2.040720
  H     -2.593569   -0.289984    3.065174
  H     -0.702707    1.999150    2.301919
  H     -1.461828    1.776860    3.886790
  H     -0.265172    0.607581    3.305354
  H     -4.587715   -0.556705   -1.662739
  H     -3.817535   -2.122526   -2.032953
  H     -6.221295   -2.449177   -1.476384
  H     -5.195893   -3.202688   -0.243307
  H     -5.980649   -1.652945    0.086804

 Total Charge           Charge          ....    0
 Multiplicity           Mult            ....    1
 Number of Electrons    NEL             ....  202
 Basis Dimension        Dim             ....  334

ORBITAL ENERGIES
----------------

  NO   OCC          E(Eh)            E(eV)
   0   2.0000     -88.045739     -2395.8464
   1   2.0000     -88.041810     -2395.7395
   2   2.0000     -87.992397     -2394.3949
   3   2.0000     -87.983149     -2394.1432
   4   2.0000     -76.430404     -2079.7770
   5   2.0000     -76.426620     -2079.6741
   6   2.0000     -18.797307      -511.5007
   7   2.0000     -18.796139      -511.4689
   8   2.0000     -18.792630      -511.3735
   9   2.0000     -18.791811      -511.3512
  10   2.0000      -9.958917      -270.9959
  11   2.0000      -9.958133      -270.9746
  12   2.0000      -9.955459      -270.9018
  13   2.0000      -9.950965      -270.7795
  14   2.0000      -9.949009      -270.7263
  15   2.0000      -9.893810      -269.2242
  16   2.0000      -9.890917      -269.1455
  17   2.0000      -9.889930      -269.1187
  18   2.0000      -9.874702      -268.7043
  19   2.0000      -7.690798      -209.2772
  20   2.0000      -7.686238      -209.1532
  21   2.0000      -7.637343      -207.8227
  22   2.0000      -7.628351      -207.5780
  23   2.0000      -6.428240      -174.9213
  24   2.0000      -6.423732      -174.7986
  25   2.0000      -5.718574      -155.6103
  26   2.0000      -5.715368      -155.5231
  27   2.0000      -5.714178      -155.4907
  28   2.0000      -5.710656      -155.3948
  29   2.0000      -5.707805      -155.3173
  30   2.0000      -5.703361      -155.1963
  31   2.0000      -5.666103      -154.1825
  32   2.0000      -5.658020      -153.9625
  33   2.0000      -5.657629      -153.9519
  34   2.0000      -5.657417      -153.9461
  35   2.0000      -5.648708      -153.7091
  36   2.0000      -5.648576      -153.7056
  37   2.0000      -4.650706      -126.5522
  38   2.0000      -4.650024      -126.5336
  39   2.0000      -4.648702      -126.4976
  40   2.0000      -4.646634      -126.4413
  41   2.0000      -4.645504      -126.4106
  42   2.0000      -4.643964      -126.3687
  43   2.0000      -0.991613       -26.9832
  44   2.0000      -0.988065       -26.8866
  45   2.0000      -0.950029       -25.8516
  46   2.0000      -0.942936       -25.6586
  47   2.0000      -0.765063       -20.8184
  48   2.0000      -0.725861       -19.7517
  49   2.0000      -0.714442       -19.4410
  50   2.0000      -0.692998       -18.8574
  51   2.0000      -0.689651       -18.7663
  52   2.0000      -0.675937       -18.3932
  53   2.0000      -0.651241       -17.7212
  54   2.0000      -0.639123       -17.3914
  55   2.0000      -0.600440       -16.3388
  56   2.0000      -0.590831       -16.0773
  57   2.0000      -0.579028       -15.7561
  58   2.0000      -0.573314       -15.6007
  59   2.0000      -0.560263       -15.2455
  60   2.0000      -0.513034       -13.9604
  61   2.0000      -0.496183       -13.5018
  62   2.0000      -0.485028       -13.1983
  63   2.0000      -0.472780       -12.8650
  64   2.0000      -0.458511       -12.4767
  65   2.0000      -0.448917       -12.2157
  66   2.0000      -0.443926       -12.0798
  67   2.0000      -0.439102       -11.9486
  68   2.0000      -0.426056       -11.5936
  69   2.0000      -0.424821       -11.5600
  70   2.0000      -0.408868       -11.1259
  71   2.0000      -0.400753       -10.9051
  72   2.0000      -0.393774       -10.7151
  73   2.0000      -0.387114       -10.5339
  74   2.0000      -0.385531       -10.4908
  75   2.0000      -0.378424       -10.2974
  76   2.0000      -0.365888        -9.9563
  77   2.0000      -0.359829        -9.7914
  78   2.0000      -0.356952        -9.7132
  79   2.0000      -0.356201        -9.6927
  80   2.0000      -0.351318        -9.5598
  81   2.0000      -0.346871        -9.4388
  82   2.0000      -0.342667        -9.3245
  83   2.0000      -0.340213        -9.2577
  84   2.0000      -0.331973        -9.0334
  85   2.0000      -0.323058        -8.7908
  86   2.0000      -0.311094        -8.4653
  87   2.0000      -0.303048        -8.2464
  88   2.0000      -0.297634        -8.0990
  89   2.0000      -0.295216        -8.0332
  90   2.0000      -0.287583        -7.8255
  91   2.0000      -0.282269        -7.6809
  92   2.0000      -0.275476        -7.4961
  93   2.0000      -0.266326        -7.2471
  94   2.0000      -0.258006        -7.0207
  95   2.0000      -0.238236        -6.4827
  96   2.0000      -0.219024        -5.9599
  97   2.0000      -0.213855        -5.8193
  98   2.0000      -0.206745        -5.6258
  99   2.0000      -0.200289        -5.4501
 100   2.0000      -0.198061        -5.3895
 101   0.0000      -0.046131        -1.2553
 102   0.0000      -0.027973        -0.7612
 103   0.0000      -0.003556        -0.0968
 104   0.0000      -0.001210        -0.0329
 105   0.0000       0.006899         0.1877

MULLIKEN ATOMIC CHARGES
-----------------------
   0 C :   -0.299517
   1 C :   -0.048374
   2 O :   -0.384245
   3 P :    0.619163
   4 S :   -0.311677
   5 O :   -0.360607
   6 C :    0.008748
   7 C :   -0.347166
   8 S :   -0.118699
   9 C :   -0.352421
  10 S :   -0.084332
  11 P :    0.612932
  12 S :   -0.335843
  13 O :   -0.359336
  14 C :   -0.003733
  15 C :   -0.306627
  16 O :   -0.377532
  17 C :   -0.010174
  18 C :   -0.282126
  19 H :    0.135729
  20 H :    0.112341
  21 H :    0.104327
  22 H :    0.097579
  23 H :    0.141786
  24 H :    0.110995
  25 H :    0.112767
  26 H :    0.118143
  27 H :    0.132073
  28 H :    0.137959
  29 H :    0.196109
  30 H :    0.194534
  31 H :    0.108305
  32 H :    0.106467
  33 H :    0.139450
  34 H :    0.110445
  35 H :    0.122017
  36 H :    0.107622
  37 H :    0.104460
  38 H :    0.113842
  39 H :    0.117219
  40 H :    0.117397
Sum of atomic charges:    0.0000000

LOEWDIN ATOMIC CHARGES
----------------------
   0 C :   -0.367157
   1 C :   -0.126230
   2 O :   -0.246474
   3 P :    0.569668
   4 S :   -0.299780
   5 O :   -0.235715
   6 C :   -0.107611
   7 C :   -0.372685
   8 S :    0.080965
   9 C :   -0.487930
  10 S :    0.095442
  11 P :    0.565950
  12 S :   -0.323192
  13 O :   -0.238189
  14 C :   -0.113372
  15 C :   -0.357759
  16 O :   -0.250615
  17 C :   -0.119686
  18 C :   -0.350698
  19 H :    0.117333
  20 H :    0.125088
  21 H :    0.128083
  22 H :    0.114763
  23 H :    0.105105
  24 H :    0.115444
  25 H :    0.123843
  26 H :    0.134023
  27 H :    0.130449
  28 H :    0.118177
  29 H :    0.129023
  30 H :    0.130509
  31 H :    0.109123
  32 H :    0.116745
  33 H :    0.126306
  34 H :    0.129871
  35 H :    0.124282
  36 H :    0.108151
  37 H :    0.112360
  38 H :    0.131688
  39 H :    0.127033
  40 H :    0.127669

  Mayer bond orders larger than 0.100000
B(  0-C ,  1-C ) :   1.1671 B(  0-C , 19-H ) :   0.9278 B(  0-C , 20-H ) :   0.9450
B(  0-C , 21-H ) :   0.9382 B(  1-C ,  2-O ) :   0.9065 B(  1-C , 22-H ) :   0.9342
B(  1-C , 23-H ) :   0.8945 B(  2-O ,  3-P ) :   1.0734 B(  3-P ,  4-S ) :   1.6511
B(  3-P ,  5-O ) :   1.1443 B(  3-P ,  8-S ) :   0.9306 B(  4-S ,  8-S ) :   0.1134
B(  5-O ,  6-C ) :   0.8997 B(  6-C ,  7-C ) :   1.1691 B(  6-C , 24-H ) :   0.9269
B(  6-C , 25-H ) :   0.9336 B(  7-C , 26-H ) :   0.9352 B(  7-C , 27-H ) :   0.9416
B(  7-C , 28-H ) :   0.9273 B(  8-S ,  9-C ) :   1.0166 B(  9-C , 10-S ) :   0.9964
B(  9-C , 29-H ) :   0.8624 B(  9-C , 30-H ) :   0.8741 B( 10-S , 11-P ) :   0.9749
B( 10-S , 12-S ) :   0.1076 B( 11-P , 12-S ) :   1.6032 B( 11-P , 13-O ) :   1.1266
B( 11-P , 16-O ) :   1.1159 B( 13-O , 14-C ) :   0.8890 B( 14-C , 15-C ) :   1.1682
B( 14-C , 31-H ) :   0.9037 B( 14-C , 32-H ) :   0.9335 B( 15-C , 33-H ) :   0.9378
B( 15-C , 34-H ) :   0.9381 B( 15-C , 35-H ) :   0.9460 B( 16-O , 17-C ) :   0.9033
B( 17-C , 18-C ) :   1.1619 B( 17-C , 36-H ) :   0.9073 B( 17-C , 37-H ) :   0.9308
B( 18-C , 38-H ) :   0.9417 B( 18-C , 39-H ) :   0.9508 B( 18-C , 40-H ) :   0.9511

Dispersion correction           -0.065112872
FINAL SINGLE POINT ENERGY     -2929.523063184575

DIPOLE MOMENT
-------------

Method             : SCF
Type of density    : Electron Density
Multiplicity       :   1
Irrep              :   0
Energy             : -2929.6431525384523411 Eh
Relativity type    :
Basis              : AO
                                X                 Y                 Z
Electronic contribution:      7.780193446       3.961312115     -17.300208722
Nuclear contribution   :     -8.555960124      -4.199718671      19.042310904
                        -----------------------------------------
Total Dipole Moment    :     -0.775766678      -0.238406556       1.742102182
                        -----------------------------------------
Magnitude (a.u.)       :      1.921866706
Magnitude (Debye)      :      4.884996950

Rotational constants in cm-1:             0.012708             0.004915             0.004490
Rotational constants in MHz :           380.981169           147.351903           134.593715

                             ****ORCA TERMINATED NORMALLY****
TOTAL RUN TIME: 0 days 0 hours 0 minutes 21 seconds 459 msec
