                         Program Version 6.0.0  -   RELEASE  -
|  1> ! wb97x-v def2-tzvp def2/J RIJCOSX DEFGRID2 scfconv7 GCP(DFT/TZ) printgap
|  2> %output
|  3>     printlevel normal
|  4> end
|  5> * xyz 0 1
|  6> C 3.506678587650712 0.6970302337568096 -0.5599521846520422
|  7> C 3.506490370247731 -0.6959415293024107 -0.5611072607393991
|  8> C 2.37501611721724 -1.3901829898053006 -0.13740212151665282
|  9> C 1.2434580237979351 -0.7007555211108829 0.29639677630981115
| 10> C 1.2434349465537078 0.7011002621870068 0.29695053604925303
| 11> C 2.375226039010163 1.3909043392740708 -0.1355555737713521
| 12> C -0.00020090795331943599 1.4110001604390712 0.7696237006401203
| 13> C -1.243467237057013 0.700733670700586 0.2964882630298659
| 14> C -2.375076125434342 1.3901651886549715 -0.13717129230178746
| 15> C -3.5065400496123518 0.6959285113272773 -0.5609161688571653
| 16> C -3.506668360744898 -0.6970446479117831 -0.5599592160821054
| 17> C -2.375186609005923 -1.3909225628636936 -0.1356538135397339
| 18> C -1.2434215703135483 -0.7011210280478697 0.29692510297305613
| 19> C 0.0002151630584572102 -1.4110161156942185 0.7695849689203362
| 20> H 4.382984817304193 1.243325321830972 -0.8948752554902213
| 21> H 4.382560718671617 -1.2419383247256242 -0.8971889417042545
| 22> H 2.368330752661268 -2.4769100458183066 -0.1453465130677792
| 23> H 2.3687434614143474 2.4776431679844535 -0.14194249328012795
| 24> H -0.0005081661356866446 1.4176653422028935 1.8713352378466324
| 25> H -0.00026806267872138 2.45580447819428 0.44816177030901183
| 26> H -2.3684400375234222 2.476893792650741 -0.1449899477412207
| 27> H -4.382652632570229 1.2419296249576428 -0.8968779649937231
| 28> H -4.382955226231562 -1.243333747142532 -0.8949480722005352
| 29> H -2.36865280544087 -2.4776604520235423 -0.14216878474662095
| 30> H 0.0005541395349690154 -1.4175853066455752 1.8713013020577813
| 31> H 0.0002741607772896093 -2.4558453466580055 0.44820200873965294
| 32> *
| 33>
| 34>                          ****END OF INPUT****

CARTESIAN COORDINATES (ANGSTROEM)
---------------------------------
  C      3.506679    0.697030   -0.559952
  C      3.506490   -0.695942   -0.561107
  C      2.375016   -1.390183   -0.137402
  C      1.243458   -0.700756    0.296397
  C      1.243435    0.701100    0.296951
  C      2.375226    1.390904   -0.135556
  C     -0.000201    1.411000    0.769624
  C     -1.243467    0.700734    0.296488
  C     -2.375076    1.390165   -0.137171
  C     -3.506540    0.695929   -0.560916
  C     -3.506668   -0.697045   -0.559959
  C     -2.375187   -1.390923   -0.135654
  C     -1.243422   -0.701121    0.296925
  C      0.000215   -1.411016    0.769585
  H      4.382985    1.243325   -0.894875
  H      4.382561   -1.241938   -0.897189
  H      2.368331   -2.476910   -0.145347
  H      2.368743    2.477643   -0.141942
  H     -0.000508    1.417665    1.871335
  H     -0.000268    2.455804    0.448162
  H     -2.368440    2.476894   -0.144990
  H     -4.382653    1.241930   -0.896878
  H     -4.382955   -1.243334   -0.894948
  H     -2.368653   -2.477660   -0.142169
  H      0.000554   -1.417585    1.871301
  H      0.000274   -2.455845    0.448202

 Total Charge           Charge          ....    0
 Multiplicity           Mult            ....    1
 Number of Electrons    NEL             ....   96
 Basis Dimension        Dim             ....  506

ORBITAL ENERGIES
----------------

  NO   OCC          E(Eh)            E(eV)
   0   2.0000     -12.058290      -328.1228
   1   2.0000     -12.058176      -328.1196
   2   2.0000     -12.057455      -328.1000
   3   2.0000     -12.056120      -328.0637
   4   2.0000     -12.056107      -328.0633
   5   2.0000     -12.055291      -328.0411
   6   2.0000     -12.049736      -327.8900
   7   2.0000     -12.049725      -327.8897
   8   2.0000     -12.049280      -327.8776
   9   2.0000     -12.049185      -327.8750
  10   2.0000     -12.047939      -327.8411
  11   2.0000     -12.047853      -327.8388
  12   2.0000     -12.046503      -327.8020
  13   2.0000     -12.046436      -327.8002
  14   2.0000      -1.402752       -38.1708
  15   2.0000      -1.378543       -37.5121
  16   2.0000      -1.319515       -35.9058
  17   2.0000      -1.300525       -35.3891
  18   2.0000      -1.272388       -34.6234
  19   2.0000      -1.268787       -34.5254
  20   2.0000      -1.221061       -33.2268
  21   2.0000      -1.174953       -31.9721
  22   2.0000      -1.107190       -30.1282
  23   2.0000      -1.098055       -29.8796
  24   2.0000      -1.097407       -29.8620
  25   2.0000      -1.055793       -28.7296
  26   2.0000      -0.971657       -26.4401
  27   2.0000      -0.970137       -26.3988
  28   2.0000      -0.943584       -25.6762
  29   2.0000      -0.938398       -25.5351
  30   2.0000      -0.919767       -25.0281
  31   2.0000      -0.898978       -24.4624
  32   2.0000      -0.877377       -23.8747
  33   2.0000      -0.877120       -23.8677
  34   2.0000      -0.874615       -23.7995
  35   2.0000      -0.866041       -23.5662
  36   2.0000      -0.851234       -23.1633
  37   2.0000      -0.842893       -22.9363
  38   2.0000      -0.824597       -22.4384
  39   2.0000      -0.811417       -22.0798
  40   2.0000      -0.808302       -21.9950
  41   2.0000      -0.788537       -21.4572
  42   2.0000      -0.766159       -20.8482
  43   2.0000      -0.753349       -20.4997
  44   2.0000      -0.637563       -17.3490
  45   2.0000      -0.633418       -17.2362
  46   2.0000      -0.633155       -17.2290
  47   2.0000      -0.631015       -17.1708
  48   0.0000      -0.242157        -6.5894
  49   0.0000      -0.242034        -6.5861
  50   0.0000      -0.237134        -6.4528
  51   0.0000      -0.230976        -6.2852
  52   0.0000      -0.079136        -2.1534

MULLIKEN ATOMIC CHARGES
-----------------------
   0 C :   -0.117739
   1 C :   -0.117941
   2 C :   -0.207631
   3 C :    0.070680
   4 C :    0.070692
   5 C :   -0.207783
   6 C :   -0.151115
   7 C :    0.070604
   8 C :   -0.207807
   9 C :   -0.117791
  10 C :   -0.117537
  11 C :   -0.208207
  12 C :    0.071048
  13 C :   -0.150809
  14 H :    0.114599
  15 H :    0.114565
  16 H :    0.109738
  17 H :    0.109747
  18 H :    0.098205
  19 H :    0.113947
  20 H :    0.109678
  21 H :    0.114587
  22 H :    0.114590
  23 H :    0.109601
  24 H :    0.098194
  25 H :    0.113884
Sum of atomic charges:   -0.0000000

LOEWDIN ATOMIC CHARGES
----------------------
   0 C :   -0.142866
   1 C :   -0.142872
   2 C :   -0.112881
   3 C :   -0.103099
   4 C :   -0.103122
   5 C :   -0.112884
   6 C :   -0.151952
   7 C :   -0.103099
   8 C :   -0.112880
   9 C :   -0.142872
  10 C :   -0.142865
  11 C :   -0.112886
  12 C :   -0.103124
  13 C :   -0.151950
  14 H :    0.140695
  15 H :    0.140700
  16 H :    0.143019
  17 H :    0.143021
  18 H :    0.155933
  19 H :    0.146307
  20 H :    0.143019
  21 H :    0.140700
  22 H :    0.140696
  23 H :    0.143022
  24 H :    0.155937
  25 H :    0.146303

  Mayer bond orders larger than 0.100000
B(  0-C ,  1-C ) :   1.4167 B(  0-C ,  5-C ) :   1.4265 B(  0-C , 14-H ) :   0.9775
B(  1-C ,  2-C ) :   1.4264 B(  1-C , 15-H ) :   0.9776 B(  2-C ,  3-C ) :   1.3967
B(  2-C , 16-H ) :   0.9764 B(  3-C ,  4-C ) :   1.3421 B(  3-C , 13-C ) :   1.0068
B(  4-C ,  5-C ) :   1.3967 B(  4-C ,  6-C ) :   1.0068 B(  5-C , 17-H ) :   0.9764
B(  6-C ,  7-C ) :   1.0069 B(  6-C , 18-H ) :   0.9106 B(  6-C , 19-H ) :   0.9766
B(  7-C ,  8-C ) :   1.3964 B(  7-C , 12-C ) :   1.3421 B(  8-C ,  9-C ) :   1.4263
B(  8-C , 20-H ) :   0.9766 B(  9-C , 10-C ) :   1.4167 B(  9-C , 21-H ) :   0.9776
B( 10-C , 11-C ) :   1.4261 B( 10-C , 22-H ) :   0.9776 B( 11-C , 12-C ) :   1.3964
B( 11-C , 23-H ) :   0.9768 B( 12-C , 13-C ) :   1.0068 B( 13-C , 24-H ) :   0.9105
B( 13-C , 25-H ) :   0.9766

FINAL SINGLE POINT ENERGY      -540.762084177558

DIPOLE MOMENT
-------------

Method             : SCF
Type of density    : Electron Density
Multiplicity       :   1
Irrep              :   0
Energy             :  -540.7757345002576130 Eh
Relativity type    :
Basis              : AO
                                X                 Y                 Z
Electronic contribution:     -0.000004432      -0.000070834      -0.326184988
Nuclear contribution   :      0.000005941       0.000081483       0.467007303
                        -----------------------------------------
Total Dipole Moment    :      0.000001508       0.000010649       0.140822315
                        -----------------------------------------
Magnitude (a.u.)       :      0.140822315
Magnitude (Debye)      :      0.357941879

Rotational constants in cm-1:             0.060197             0.015589             0.013264
Rotational constants in MHz :          1804.648292           467.352276           397.638007

                             ****ORCA TERMINATED NORMALLY****
TOTAL RUN TIME: 0 days 0 hours 8 minutes 59 seconds 968 msec
