                         Program Version 6.0.0  -   RELEASE  -
|  1> ! wb97x-v def2-tzvp def2/J RIJCOSX DEFGRID2 scfconv7 GCP(DFT/TZ) printgap
|  2> %output
|  3>     printlevel normal
|  4> end
|  5> %cpcm
|  6>     smd true
|  7>     smdsolvent "water"
|  8> end
|  9> * xyz 0 1
| 10> C 3.506678587650712 0.6970302337568096 -0.5599521846520422
| 11> C 3.506490370247731 -0.6959415293024107 -0.5611072607393991
| 12> C 2.37501611721724 -1.3901829898053006 -0.13740212151665282
| 13> C 1.2434580237979351 -0.7007555211108829 0.29639677630981115
| 14> C 1.2434349465537078 0.7011002621870068 0.29695053604925303
| 15> C 2.375226039010163 1.3909043392740708 -0.1355555737713521
| 16> C -0.00020090795331943599 1.4110001604390712 0.7696237006401203
| 17> C -1.243467237057013 0.700733670700586 0.2964882630298659
| 18> C -2.375076125434342 1.3901651886549715 -0.13717129230178746
| 19> C -3.5065400496123518 0.6959285113272773 -0.5609161688571653
| 20> C -3.506668360744898 -0.6970446479117831 -0.5599592160821054
| 21> C -2.375186609005923 -1.3909225628636936 -0.1356538135397339
| 22> C -1.2434215703135483 -0.7011210280478697 0.29692510297305613
| 23> C 0.0002151630584572102 -1.4110161156942185 0.7695849689203362
| 24> H 4.382984817304193 1.243325321830972 -0.8948752554902213
| 25> H 4.382560718671617 -1.2419383247256242 -0.8971889417042545
| 26> H 2.368330752661268 -2.4769100458183066 -0.1453465130677792
| 27> H 2.3687434614143474 2.4776431679844535 -0.14194249328012795
| 28> H -0.0005081661356866446 1.4176653422028935 1.8713352378466324
| 29> H -0.00026806267872138 2.45580447819428 0.44816177030901183
| 30> H -2.3684400375234222 2.476893792650741 -0.1449899477412207
| 31> H -4.382652632570229 1.2419296249576428 -0.8968779649937231
| 32> H -4.382955226231562 -1.243333747142532 -0.8949480722005352
| 33> H -2.36865280544087 -2.4776604520235423 -0.14216878474662095
| 34> H 0.0005541395349690154 -1.4175853066455752 1.8713013020577813
| 35> H 0.0002741607772896093 -2.4558453466580055 0.44820200873965294
| 36> *
| 37>
| 38>                          ****END OF INPUT****

CARTESIAN COORDINATES (ANGSTROEM)
---------------------------------
  C      3.506679    0.697030   -0.559952
  C      3.506490   -0.695942   -0.561107
  C      2.375016   -1.390183   -0.137402
  C      1.243458   -0.700756    0.296397
  C      1.243435    0.701100    0.296951
  C      2.375226    1.390904   -0.135556
  C     -0.000201    1.411000    0.769624
  C     -1.243467    0.700734    0.296488
  C     -2.375076    1.390165   -0.137171
  C     -3.506540    0.695929   -0.560916
  C     -3.506668   -0.697045   -0.559959
  C     -2.375187   -1.390923   -0.135654
  C     -1.243422   -0.701121    0.296925
  C      0.000215   -1.411016    0.769585
  H      4.382985    1.243325   -0.894875
  H      4.382561   -1.241938   -0.897189
  H      2.368331   -2.476910   -0.145347
  H      2.368743    2.477643   -0.141942
  H     -0.000508    1.417665    1.871335
  H     -0.000268    2.455804    0.448162
  H     -2.368440    2.476894   -0.144990
  H     -4.382653    1.241930   -0.896878
  H     -4.382955   -1.243334   -0.894948
  H     -2.368653   -2.477660   -0.142169
  H      0.000554   -1.417585    1.871301
  H      0.000274   -2.455845    0.448202

 Total Charge           Charge          ....    0
 Multiplicity           Mult            ....    1
 Number of Electrons    NEL             ....   96
 Basis Dimension        Dim             ....  506

ORBITAL ENERGIES
----------------

  NO   OCC          E(Eh)            E(eV)
   0   2.0000     -12.056485      -328.0736
   1   2.0000     -12.056150      -328.0645
   2   2.0000     -12.054501      -328.0196
   3   2.0000     -12.054299      -328.0142
   4   2.0000     -12.047738      -327.8356
   5   2.0000     -12.047552      -327.8306
   6   2.0000     -12.047244      -327.8222
   7   2.0000     -12.047244      -327.8222
   8   2.0000     -12.046595      -327.8045
   9   2.0000     -12.046413      -327.7996
  10   2.0000     -12.045279      -327.7687
  11   2.0000     -12.045175      -327.7659
  12   2.0000     -12.044079      -327.7361
  13   2.0000     -12.043978      -327.7333
  14   2.0000      -1.401060       -38.1248
  15   2.0000      -1.378080       -37.4995
  16   2.0000      -1.317458       -35.8499
  17   2.0000      -1.297020       -35.2937
  18   2.0000      -1.270925       -34.5836
  19   2.0000      -1.267672       -34.4951
  20   2.0000      -1.216952       -33.1149
  21   2.0000      -1.171477       -31.8775
  22   2.0000      -1.104853       -30.0646
  23   2.0000      -1.095064       -29.7982
  24   2.0000      -1.094129       -29.7728
  25   2.0000      -1.052671       -28.6446
  26   2.0000      -0.968868       -26.3642
  27   2.0000      -0.966793       -26.3078
  28   2.0000      -0.941719       -25.6255
  29   2.0000      -0.934621       -25.4323
  30   2.0000      -0.914942       -24.8968
  31   2.0000      -0.893221       -24.3058
  32   2.0000      -0.873634       -23.7728
  33   2.0000      -0.872134       -23.7320
  34   2.0000      -0.870702       -23.6930
  35   2.0000      -0.860819       -23.4241
  36   2.0000      -0.845328       -23.0025
  37   2.0000      -0.834362       -22.7041
  38   2.0000      -0.819104       -22.2889
  39   2.0000      -0.807350       -21.9691
  40   2.0000      -0.804571       -21.8935
  41   2.0000      -0.783373       -21.3167
  42   2.0000      -0.767075       -20.8732
  43   2.0000      -0.752722       -20.4826
  44   2.0000      -0.637826       -17.3561
  45   2.0000      -0.633566       -17.2402
  46   2.0000      -0.633309       -17.2332
  47   2.0000      -0.630206       -17.1488
  48   0.0000      -0.241615        -6.5747
  49   0.0000      -0.241479        -6.5710
  50   0.0000      -0.237162        -6.4535
  51   0.0000      -0.230749        -6.2790
  52   0.0000      -0.077628        -2.1124

MULLIKEN ATOMIC CHARGES
-----------------------
   0 C :   -0.164617
   1 C :   -0.164821
   2 C :   -0.248107
   3 C :    0.034094
   4 C :    0.034091
   5 C :   -0.248221
   6 C :   -0.135059
   7 C :    0.034050
   8 C :   -0.248315
   9 C :   -0.164637
  10 C :   -0.164451
  11 C :   -0.248619
  12 C :    0.034412
  13 C :   -0.134721
  14 H :    0.158083
  15 H :    0.158051
  16 H :    0.154896
  17 H :    0.154901
  18 H :    0.119312
  19 H :    0.147345
  20 H :    0.154836
  21 H :    0.158076
  22 H :    0.158077
  23 H :    0.154760
  24 H :    0.119300
  25 H :    0.147285
Sum of atomic charges:   -0.0000000

LOEWDIN ATOMIC CHARGES
----------------------
   0 C :   -0.156325
   1 C :   -0.156333
   2 C :   -0.121255
   3 C :   -0.110599
   4 C :   -0.110615
   5 C :   -0.121250
   6 C :   -0.147943
   7 C :   -0.110597
   8 C :   -0.121253
   9 C :   -0.156333
  10 C :   -0.156325
  11 C :   -0.121253
  12 C :   -0.110618
  13 C :   -0.147942
  14 H :    0.149524
  15 H :    0.149529
  16 H :    0.153320
  17 H :    0.153323
  18 H :    0.163534
  19 H :    0.155090
  20 H :    0.153320
  21 H :    0.149529
  22 H :    0.149525
  23 H :    0.153324
  24 H :    0.163538
  25 H :    0.155087

  Mayer bond orders larger than 0.100000
B(  0-C ,  1-C ) :   1.3924 B(  0-C ,  5-C ) :   1.4046 B(  0-C , 14-H ) :   0.9814
B(  1-C ,  2-C ) :   1.4045 B(  1-C , 15-H ) :   0.9815 B(  2-C ,  3-C ) :   1.3835
B(  2-C , 16-H ) :   0.9847 B(  3-C ,  4-C ) :   1.3040 B(  3-C , 13-C ) :   1.0108
B(  4-C ,  5-C ) :   1.3834 B(  4-C ,  6-C ) :   1.0108 B(  5-C , 17-H ) :   0.9847
B(  6-C ,  7-C ) :   1.0109 B(  6-C , 18-H ) :   0.9024 B(  6-C , 19-H ) :   0.9760
B(  7-C ,  8-C ) :   1.3831 B(  7-C , 12-C ) :   1.3039 B(  8-C ,  9-C ) :   1.4045
B(  8-C , 20-H ) :   0.9849 B(  9-C , 10-C ) :   1.3924 B(  9-C , 21-H ) :   0.9815
B( 10-C , 11-C ) :   1.4043 B( 10-C , 22-H ) :   0.9815 B( 11-C , 12-C ) :   1.3831
B( 11-C , 23-H ) :   0.9851 B( 12-C , 13-C ) :   1.0108 B( 13-C , 24-H ) :   0.9023
B( 13-C , 25-H ) :   0.9761

FINAL SINGLE POINT ENERGY      -540.767632793751

DIPOLE MOMENT
-------------

Method             : SCF
Type of density    : Electron Density
Multiplicity       :   1
Irrep              :   0
Energy             :  -540.7812831164511636 Eh
Relativity type    :
Basis              : AO
                                X                 Y                 Z
Electronic contribution:     -0.000002591      -0.000061735      -0.182728126
Nuclear contribution   :      0.000005941       0.000081483       0.467007303
                        -----------------------------------------
Total Dipole Moment    :      0.000003350       0.000019748       0.284279176
                        -----------------------------------------
Magnitude (a.u.)       :      0.284279177
Magnitude (Debye)      :      0.722580244

Rotational constants in cm-1:             0.060197             0.015589             0.013264
Rotational constants in MHz :          1804.648292           467.352276           397.638007

                             ****ORCA TERMINATED NORMALLY****
TOTAL RUN TIME: 0 days 0 hours 7 minutes 53 seconds 75 msec
