                         Program Version 6.0.0  -   RELEASE  -
|  1> ! pbe def2-sv(p) def2/J RI DEFGRID1 loosescf d4 GCP(DFT/SV(P)) printgap
|  2> %output
|  3>     printlevel normal
|  4> end
|  5> * xyz 0 1
|  6> C 3.7988184268 -0.3654934699 -2.3287004771
|  7> C 2.5113966858 0.4133205622 -2.1693890827
|  8> O 1.7761096592 -0.0267091162 -1.0122553565
|  9> P 2.2599953898 0.2786338335 0.4607768422
| 10> S 3.289740986 1.9222534623 0.7257845495
| 11> O 2.9769388203 -1.1028022515 0.8240583931
| 12> C 3.5970853507 -1.3111796942 2.1080069702
| 13> C 5.0754045343 -0.9781942803 2.0571915063
| 14> S 0.4491569128 0.2035879758 1.524361817
| 15> C -0.2376599368 -1.3625248133 0.8454121015
| 16> S -2.0317580668 -1.3223605429 0.872779708
| 17> P -2.2873372005 0.08772041 -0.7119571304
| 18> S -1.1604300514 -0.256987641 -2.2766392249
| 19> O -1.9877758225 1.5458610646 -0.1904418103
| 20> C -2.822235527 2.3471155457 0.6816454827
| 21> C -2.9908140684 1.7411589858 2.0594837628
| 22> O -3.8611430261 0.1291874912 -0.9092892503
| 23> C -4.7117835152 -1.0283827525 -1.0184095564
| 24> C -4.2941484477 -1.957934709 -2.1380321664
| 25> H 4.4577878752 -0.1557530423 -1.4866824134
| 26> H 3.5907349403 -1.4316614697 -2.359310594
| 27> H 4.2898206925 -0.064449219 -3.2485538985
| 28> H 1.8164975144 0.2440774364 -2.9943360831
| 29> H 2.7128787533 1.4845344395 -2.0670491812
| 30> H 3.0846987559 -0.7003796043 2.8587523615
| 31> H 3.4373476392 -2.3692606834 2.3244098492
| 32> H 5.5645882743 -1.5685438012 1.2874942778
| 33> H 5.2158051052 0.0773240505 1.8344726818
| 34> H 5.5249034953 -1.1987992183 3.0199233727
| 35> H 0.0700904656 -2.1914465958 1.4767337545
| 36> H 0.1068332061 -1.4754380249 -0.1827583981
| 37> H -2.2858660888 3.2964443659 0.7274089125
| 38> H -3.7872757208 2.4871993192 0.1912175895
| 39> H -3.50098709 2.4577451799 2.6956729151
| 40> H -3.5820182573 0.8295204616 2.0099821195
| 41> H -2.0191488977 1.5100108701 2.4918621939
| 42> H -4.7009735633 -1.5510863419 -0.0581993424
| 43> H -5.6999618702 -0.6022239632 -1.2004047001
| 44> H -3.3122939277 -2.3799573335 -1.9291769803
| 45> H -5.0153032762 -2.7640874353 -2.2250695078
| 46> H -4.2411188641 -1.4179553859 -3.0805218739
| 47> *
| 48>
| 49>                          ****END OF INPUT****

CARTESIAN COORDINATES (ANGSTROEM)
---------------------------------
  C      3.798818   -0.365493   -2.328700
  C      2.511397    0.413321   -2.169389
  O      1.776110   -0.026709   -1.012255
  P      2.259995    0.278634    0.460777
  S      3.289741    1.922253    0.725785
  O      2.976939   -1.102802    0.824058
  C      3.597085   -1.311180    2.108007
  C      5.075405   -0.978194    2.057192
  S      0.449157    0.203588    1.524362
  C     -0.237660   -1.362525    0.845412
  S     -2.031758   -1.322361    0.872780
  P     -2.287337    0.087720   -0.711957
  S     -1.160430   -0.256988   -2.276639
  O     -1.987776    1.545861   -0.190442
  C     -2.822236    2.347116    0.681645
  C     -2.990814    1.741159    2.059484
  O     -3.861143    0.129187   -0.909289
  C     -4.711784   -1.028383   -1.018410
  C     -4.294148   -1.957935   -2.138032
  H      4.457788   -0.155753   -1.486682
  H      3.590735   -1.431661   -2.359311
  H      4.289821   -0.064449   -3.248554
  H      1.816498    0.244077   -2.994336
  H      2.712879    1.484534   -2.067049
  H      3.084699   -0.700380    2.858752
  H      3.437348   -2.369261    2.324410
  H      5.564588   -1.568544    1.287494
  H      5.215805    0.077324    1.834473
  H      5.524903   -1.198799    3.019923
  H      0.070090   -2.191447    1.476734
  H      0.106833   -1.475438   -0.182758
  H     -2.285866    3.296444    0.727409
  H     -3.787276    2.487199    0.191218
  H     -3.500987    2.457745    2.695673
  H     -3.582018    0.829520    2.009982
  H     -2.019149    1.510011    2.491862
  H     -4.700974   -1.551086   -0.058199
  H     -5.699962   -0.602224   -1.200405
  H     -3.312294   -2.379957   -1.929177
  H     -5.015303   -2.764087   -2.225070
  H     -4.241119   -1.417955   -3.080522

 Total Charge           Charge          ....    0
 Multiplicity           Mult            ....    1
 Number of Electrons    NEL             ....  202
 Basis Dimension        Dim             ....  334

ORBITAL ENERGIES
----------------

  NO   OCC          E(Eh)            E(eV)
   0   2.0000     -88.050360     -2395.9721
   1   2.0000     -88.038010     -2395.6361
   2   2.0000     -87.983588     -2394.1552
   3   2.0000     -87.979532     -2394.0448
   4   2.0000     -76.427561     -2079.6997
   5   2.0000     -76.421255     -2079.5281
   6   2.0000     -18.800646      -511.5916
   7   2.0000     -18.787421      -511.2317
   8   2.0000     -18.786652      -511.2108
   9   2.0000     -18.783032      -511.1123
  10   2.0000      -9.964789      -271.1557
  11   2.0000      -9.956365      -270.9265
  12   2.0000      -9.953561      -270.8502
  13   2.0000      -9.952722      -270.8273
  14   2.0000      -9.942419      -270.5470
  15   2.0000      -9.886685      -269.0304
  16   2.0000      -9.885845      -269.0075
  17   2.0000      -9.879256      -268.8282
  18   2.0000      -9.876978      -268.7662
  19   2.0000      -7.695180      -209.3965
  20   2.0000      -7.683113      -209.0681
  21   2.0000      -7.628746      -207.5887
  22   2.0000      -7.624713      -207.4790
  23   2.0000      -6.424554      -174.8210
  24   2.0000      -6.419104      -174.6727
  25   2.0000      -5.722890      -155.7278
  26   2.0000      -5.719666      -155.6400
  27   2.0000      -5.712400      -155.4423
  28   2.0000      -5.711492      -155.4176
  29   2.0000      -5.707391      -155.3060
  30   2.0000      -5.699809      -155.0997
  31   2.0000      -5.657759      -153.9554
  32   2.0000      -5.653799      -153.8477
  33   2.0000      -5.649379      -153.7274
  34   2.0000      -5.648811      -153.7120
  35   2.0000      -5.645232      -153.6146
  36   2.0000      -5.644769      -153.6020
  37   2.0000      -4.647610      -126.4679
  38   2.0000      -4.646511      -126.4380
  39   2.0000      -4.644456      -126.3821
  40   2.0000      -4.641418      -126.2994
  41   2.0000      -4.641116      -126.2912
  42   2.0000      -4.639575      -126.2493
  43   2.0000      -0.990607       -26.9558
  44   2.0000      -0.981591       -26.7105
  45   2.0000      -0.944723       -25.7072
  46   2.0000      -0.940040       -25.5798
  47   2.0000      -0.764326       -20.7984
  48   2.0000      -0.720952       -19.6181
  49   2.0000      -0.709556       -19.3080
  50   2.0000      -0.693438       -18.8694
  51   2.0000      -0.682154       -18.5624
  52   2.0000      -0.673116       -18.3164
  53   2.0000      -0.651926       -17.7398
  54   2.0000      -0.636454       -17.3188
  55   2.0000      -0.592498       -16.1227
  56   2.0000      -0.589856       -16.0508
  57   2.0000      -0.582853       -15.8602
  58   2.0000      -0.566554       -15.4167
  59   2.0000      -0.561032       -15.2665
  60   2.0000      -0.500783       -13.6270
  61   2.0000      -0.496598       -13.5131
  62   2.0000      -0.472302       -12.8520
  63   2.0000      -0.469717       -12.7816
  64   2.0000      -0.456482       -12.4215
  65   2.0000      -0.445497       -12.1226
  66   2.0000      -0.437718       -11.9109
  67   2.0000      -0.434895       -11.8341
  68   2.0000      -0.432605       -11.7718
  69   2.0000      -0.416047       -11.3212
  70   2.0000      -0.412312       -11.2196
  71   2.0000      -0.407695       -11.0940
  72   2.0000      -0.397655       -10.8208
  73   2.0000      -0.388128       -10.5615
  74   2.0000      -0.380764       -10.3611
  75   2.0000      -0.366923        -9.9845
  76   2.0000      -0.355977        -9.6866
  77   2.0000      -0.355192        -9.6653
  78   2.0000      -0.354660        -9.6508
  79   2.0000      -0.348623        -9.4865
  80   2.0000      -0.344535        -9.3753
  81   2.0000      -0.342353        -9.3159
  82   2.0000      -0.340630        -9.2690
  83   2.0000      -0.334643        -9.1061
  84   2.0000      -0.328827        -8.9478
  85   2.0000      -0.323463        -8.8019
  86   2.0000      -0.315708        -8.5909
  87   2.0000      -0.301244        -8.1973
  88   2.0000      -0.293662        -7.9909
  89   2.0000      -0.289179        -7.8690
  90   2.0000      -0.282323        -7.6824
  91   2.0000      -0.278794        -7.5864
  92   2.0000      -0.269033        -7.3208
  93   2.0000      -0.262213        -7.1352
  94   2.0000      -0.256795        -6.9878
  95   2.0000      -0.235969        -6.4210
  96   2.0000      -0.218263        -5.9392
  97   2.0000      -0.204784        -5.5724
  98   2.0000      -0.198005        -5.3880
  99   2.0000      -0.195524        -5.3205
 100   2.0000      -0.193051        -5.2532
 101   0.0000      -0.045658        -1.2424
 102   0.0000      -0.020469        -0.5570
 103   0.0000      -0.018743        -0.5100
 104   0.0000       0.001275         0.0347
 105   0.0000       0.014109         0.3839

MULLIKEN ATOMIC CHARGES
-----------------------
   0 C :   -0.307503
   1 C :   -0.002180
   2 O :   -0.361512
   3 P :    0.613033
   4 S :   -0.324419
   5 O :   -0.381812
   6 C :   -0.012452
   7 C :   -0.291882
   8 S :   -0.088130
   9 C :   -0.353076
  10 S :   -0.123955
  11 P :    0.612189
  12 S :   -0.306054
  13 O :   -0.347113
  14 C :    0.007027
  15 C :   -0.325867
  16 O :   -0.381891
  17 C :   -0.017793
  18 C :   -0.306781
  19 H :    0.121287
  20 H :    0.114708
  21 H :    0.110585
  22 H :    0.112128
  23 H :    0.112733
  24 H :    0.099334
  25 H :    0.102275
  26 H :    0.113324
  27 H :    0.130620
  28 H :    0.106211
  29 H :    0.180154
  30 H :    0.215153
  31 H :    0.114033
  32 H :    0.107735
  33 H :    0.112599
  34 H :    0.116192
  35 H :    0.136541
  36 H :    0.115685
  37 H :    0.111394
  38 H :    0.127139
  39 H :    0.112036
  40 H :    0.128306
Sum of atomic charges:   -0.0000000

LOEWDIN ATOMIC CHARGES
----------------------
   0 C :   -0.365084
   1 C :   -0.114539
   2 O :   -0.229521
   3 P :    0.565582
   4 S :   -0.320203
   5 O :   -0.254075
   6 C :   -0.118581
   7 C :   -0.364224
   8 S :    0.077224
   9 C :   -0.474964
  10 S :    0.075578
  11 P :    0.571007
  12 S :   -0.300994
  13 O :   -0.229978
  14 C :   -0.108127
  15 C :   -0.371654
  16 O :   -0.244388
  17 C :   -0.114640
  18 C :   -0.368980
  19 H :    0.121112
  20 H :    0.125520
  21 H :    0.129804
  22 H :    0.117689
  23 H :    0.111761
  24 H :    0.106178
  25 H :    0.115695
  26 H :    0.124806
  27 H :    0.124802
  28 H :    0.128044
  29 H :    0.132728
  30 H :    0.130276
  31 H :    0.124976
  32 H :    0.113321
  33 H :    0.130851
  34 H :    0.114466
  35 H :    0.124029
  36 H :    0.107776
  37 H :    0.122236
  38 H :    0.122193
  39 H :    0.130539
  40 H :    0.131758

  Mayer bond orders larger than 0.100000
B(  0-C ,  1-C ) :   1.1618 B(  0-C , 19-H ) :   0.9349 B(  0-C , 20-H ) :   0.9469
B(  0-C , 21-H ) :   0.9392 B(  1-C ,  2-O ) :   0.9003 B(  1-C , 22-H ) :   0.9271
B(  1-C , 23-H ) :   0.9183 B(  2-O ,  3-P ) :   1.1286 B(  3-P ,  4-S ) :   1.6355
B(  3-P ,  5-O ) :   1.0661 B(  3-P ,  8-S ) :   0.9827 B(  5-O ,  6-C ) :   0.9122
B(  6-C ,  7-C ) :   1.1691 B(  6-C , 24-H ) :   0.9118 B(  6-C , 25-H ) :   0.9355
B(  7-C , 26-H ) :   0.9460 B(  7-C , 27-H ) :   0.9307 B(  7-C , 28-H ) :   0.9396
B(  8-S ,  9-C ) :   0.9560 B(  9-C , 10-S ) :   1.0270 B(  9-C , 29-H ) :   0.9100
B(  9-C , 30-H ) :   0.8565 B( 10-S , 11-P ) :   0.9148 B( 10-S , 12-S ) :   0.1105
B( 11-P , 12-S ) :   1.6639 B( 11-P , 13-O ) :   1.1469 B( 11-P , 16-O ) :   1.0802
B( 13-O , 14-C ) :   0.8973 B( 14-C , 15-C ) :   1.1685 B( 14-C , 31-H ) :   0.9339
B( 14-C , 32-H ) :   0.9292 B( 15-C , 33-H ) :   0.9355 B( 15-C , 34-H ) :   0.9409
B( 15-C , 35-H ) :   0.9374 B( 16-O , 17-C ) :   0.9114 B( 17-C , 18-C ) :   1.1672
B( 17-C , 36-H ) :   0.9255 B( 17-C , 37-H ) :   0.9332 B( 18-C , 38-H ) :   0.9311
B( 18-C , 39-H ) :   0.9346 B( 18-C , 40-H ) :   0.9431

Dispersion correction           -0.064819730
FINAL SINGLE POINT ENERGY     -2929.512261469782

DIPOLE MOMENT
-------------

Method             : SCF
Type of density    : Electron Density
Multiplicity       :   1
Irrep              :   0
Energy             : -2929.6329808603913989 Eh
Relativity type    :
Basis              : AO
                                X                 Y                 Z
Electronic contribution:     -2.728545824       6.333820284       0.345043721
Nuclear contribution   :      1.612633598      -7.356531568       0.261416899
                        -----------------------------------------
Total Dipole Moment    :     -1.115912226      -1.022711284       0.606460620
                        -----------------------------------------
Magnitude (a.u.)       :      1.630641883
Magnitude (Debye)      :      4.144762276

Rotational constants in cm-1:             0.013493             0.004608             0.004312
Rotational constants in MHz :           404.520287           138.146404           129.267514

                             ****ORCA TERMINATED NORMALLY****
TOTAL RUN TIME: 0 days 0 hours 0 minutes 20 seconds 861 msec
