                         Program Version 6.0.0  -   RELEASE  -
|  1> ! pbe def2-sv(p) def2/J RI DEFGRID1 loosescf d4 GCP(DFT/SV(P)) printgap
|  2> %output
|  3>     printlevel normal
|  4> end
|  5> * xyz 0 1
|  6> C 0.7950241206 1.4339061159 -0.485639927
|  7> C 1.5961136382 0.1825290867 -0.069549496
|  8> H 2.4985574773 0.1559558631 -0.6910091523
|  9> C 0.7703088023 -1.1010773106 -0.3156379793
| 10> H 1.2386723587 -1.9236272821 0.2441610347
| 11> C -0.6649024903 -0.9083100772 0.2163755343
| 12> H -1.2546905071 -1.8039713667 0.0026101397
| 13> C -1.2704454495 0.316634196 -0.4873768794
| 14> H -1.1672082397 0.2204390146 -1.5761830784
| 15> O -0.5407288591 1.4402623192 -0.0139739153
| 16> O -2.608399297 0.5006607972 -0.2246356661
| 17> O -0.679646433 -0.6854044767 1.6071993219
| 18> O 0.6654991318 -1.4098595443 -1.6831837245
| 19> O 2.0671090348 0.2450308857 1.2551670631
| 20> H 0.7918285264 1.5003746033 -1.5803654357
| 21> H 1.2584946376 2.3241470005 -0.0593322665
| 22> H -2.7668472772 0.4900069809 0.7341502956
| 23> H -0.6752019422 0.2814318278 1.7412678232
| 24> H 1.5066100174 -1.763784839 -2.0065897767
| 25> H 1.3590840054 -0.0111136005 1.8676473589
| 26> *
| 27>
| 28>                          ****END OF INPUT****

CARTESIAN COORDINATES (ANGSTROEM)
---------------------------------
  C      0.795024    1.433906   -0.485640
  C      1.596114    0.182529   -0.069549
  H      2.498557    0.155956   -0.691009
  C      0.770309   -1.101077   -0.315638
  H      1.238672   -1.923627    0.244161
  C     -0.664902   -0.908310    0.216376
  H     -1.254691   -1.803971    0.002610
  C     -1.270445    0.316634   -0.487377
  H     -1.167208    0.220439   -1.576183
  O     -0.540729    1.440262   -0.013974
  O     -2.608399    0.500661   -0.224636
  O     -0.679646   -0.685404    1.607199
  O      0.665499   -1.409860   -1.683184
  O      2.067109    0.245031    1.255167
  H      0.791829    1.500375   -1.580365
  H      1.258495    2.324147   -0.059332
  H     -2.766847    0.490007    0.734150
  H     -0.675202    0.281432    1.741268
  H      1.506610   -1.763785   -2.006590
  H      1.359084   -0.011114    1.867647

 Total Charge           Charge          ....    0
 Multiplicity           Mult            ....    1
 Number of Electrons    NEL             ....   80
 Basis Dimension        Dim             ....  160

ORBITAL ENERGIES
----------------

  NO   OCC          E(Eh)            E(eV)
   0   2.0000     -18.777300      -510.9563
   1   2.0000     -18.775974      -510.9202
   2   2.0000     -18.770372      -510.7678
   3   2.0000     -18.765355      -510.6313
   4   2.0000     -18.749374      -510.1964
   5   2.0000      -9.988802      -271.8091
   6   2.0000      -9.950773      -270.7743
   7   2.0000      -9.948261      -270.7059
   8   2.0000      -9.946623      -270.6614
   9   2.0000      -9.939064      -270.4557
  10   2.0000      -0.994245       -27.0548
  11   2.0000      -0.950133       -25.8544
  12   2.0000      -0.941115       -25.6090
  13   2.0000      -0.929305       -25.2877
  14   2.0000      -0.918244       -24.9867
  15   2.0000      -0.702108       -19.1053
  16   2.0000      -0.678375       -18.4595
  17   2.0000      -0.594561       -16.1788
  18   2.0000      -0.589238       -16.0340
  19   2.0000      -0.543910       -14.8005
  20   2.0000      -0.514562       -14.0019
  21   2.0000      -0.488957       -13.3052
  22   2.0000      -0.470908       -12.8141
  23   2.0000      -0.451570       -12.2879
  24   2.0000      -0.441601       -12.0166
  25   2.0000      -0.433097       -11.7852
  26   2.0000      -0.403133       -10.9698
  27   2.0000      -0.380820       -10.3626
  28   2.0000      -0.371280       -10.1031
  29   2.0000      -0.362516        -9.8646
  30   2.0000      -0.329760        -8.9732
  31   2.0000      -0.322106        -8.7649
  32   2.0000      -0.301617        -8.2074
  33   2.0000      -0.298591        -8.1251
  34   2.0000      -0.291020        -7.9191
  35   2.0000      -0.261432        -7.1139
  36   2.0000      -0.253778        -6.9057
  37   2.0000      -0.242391        -6.5958
  38   2.0000      -0.223975        -6.0947
  39   2.0000      -0.206050        -5.6069
  40   0.0000       0.003415         0.0929
  41   0.0000       0.016708         0.4546
  42   0.0000       0.048279         1.3137
  43   0.0000       0.058586         1.5942
  44   0.0000       0.072625         1.9762

MULLIKEN ATOMIC CHARGES
-----------------------
   0 C :    0.063963
   1 C :    0.017963
   2 H :    0.061247
   3 C :    0.016961
   4 H :    0.079989
   5 C :    0.042878
   6 H :    0.088631
   7 C :    0.122286
   8 H :    0.087038
   9 O :   -0.319826
  10 O :   -0.359373
  11 O :   -0.429419
  12 O :   -0.412822
  13 O :   -0.424046
  14 H :    0.072414
  15 H :    0.102094
  16 H :    0.299798
  17 H :    0.292883
  18 H :    0.310007
  19 H :    0.287333
Sum of atomic charges:   -0.0000000

LOEWDIN ATOMIC CHARGES
----------------------
   0 C :   -0.124039
   1 C :   -0.088504
   2 H :    0.113024
   3 C :   -0.082053
   4 H :    0.105509
   5 C :   -0.086352
   6 H :    0.121015
   7 C :   -0.009671
   8 H :    0.111457
   9 O :   -0.169685
  10 O :   -0.280430
  11 O :   -0.313016
  12 O :   -0.315849
  13 O :   -0.322889
  14 H :    0.108294
  15 H :    0.122307
  16 H :    0.283308
  17 H :    0.265123
  18 H :    0.293312
  19 H :    0.269137

  Mayer bond orders larger than 0.100000
B(  0-C ,  1-C ) :   1.0517 B(  0-C ,  9-O ) :   1.0046 B(  0-C , 14-H ) :   0.8920
B(  0-C , 15-H ) :   0.9223 B(  1-C ,  2-H ) :   0.8940 B(  1-C ,  3-C ) :   0.9617
B(  1-C , 13-O ) :   1.0589 B(  3-C ,  4-H ) :   0.9071 B(  3-C ,  5-C ) :   0.9689
B(  3-C , 12-O ) :   1.0571 B(  5-C ,  6-H ) :   0.8949 B(  5-C ,  7-C ) :   1.0182
B(  5-C , 11-O ) :   1.0395 B(  7-C ,  8-H ) :   0.8855 B(  7-C ,  9-O ) :   0.9633
B(  7-C , 10-O ) :   1.1751 B( 10-O , 16-H ) :   0.8343 B( 11-O , 17-H ) :   0.7949
B( 12-O , 18-H ) :   0.8452 B( 13-O , 19-H ) :   0.8197

Dispersion correction           -0.019923277
FINAL SINGLE POINT ENERGY      -571.412983401103

DIPOLE MOMENT
-------------

Method             : SCF
Type of density    : Electron Density
Multiplicity       :   1
Irrep              :   0
Energy             :  -571.5240857686600293 Eh
Relativity type    :
Basis              : AO
                                X                 Y                 Z
Electronic contribution:     -2.148409918       0.206358654       1.068659809
Nuclear contribution   :      2.600597877      -0.496019667      -1.227868252
                        -----------------------------------------
Total Dipole Moment    :      0.452187959      -0.289661013      -0.159208442
                        -----------------------------------------
Magnitude (a.u.)       :      0.560111400
Magnitude (Debye)      :      1.423690037

Rotational constants in cm-1:             0.060305             0.040274             0.037280
Rotational constants in MHz :          1807.903294          1207.385993          1117.612771

                             ****ORCA TERMINATED NORMALLY****
TOTAL RUN TIME: 0 days 0 hours 0 minutes 15 seconds 86 msec
