                         Program Version 6.0.0  -   RELEASE  -
|  1> ! pbe def2-sv(p) def2/J RI DEFGRID1 loosescf d4 GCP(DFT/SV(P)) printgap
|  2> %output
|  3>     printlevel normal
|  4> end
|  5> * xyz 0 1
|  6> C 2.2112090285 1.9857125165 -1.6072741774
|  7> C 2.5275685406 2.3249237322 -0.1652914886
|  8> O 1.8507266629 1.4568250323 0.7781046298
|  9> P 2.091395143 -0.0978775757 0.9212242492
| 10> S 1.5624037734 -0.7170191212 2.7006437788
| 11> O 3.6260819148 -0.2060720392 0.5169943164
| 12> C 4.3276702833 -1.4507497244 0.3420159877
| 13> C 4.7774709744 -2.038633428 1.6650316013
| 14> S 1.0949140306 -1.0703543676 -0.7043963793
| 15> C -0.2202341376 -1.9178494501 0.2004298264
| 16> S -1.4636393929 -0.8130611318 0.9179026134
| 17> P -2.0640777441 0.1640557792 -0.8868289708
| 18> S -1.8363383593 -0.8180543562 -2.5599773673
| 19> O -1.2497173194 1.5188259268 -0.9308467946
| 20> C -1.3545488307 2.5225037825 0.1078102882
| 21> C -2.2118291309 3.677729116 -0.3654039143
| 22> O -3.5196338969 0.690443435 -0.5218179198
| 23> C -4.5904691958 -0.1161900348 0.0028608287
| 24> C -4.8708517486 -1.343850767 -0.8376107491
| 25> H 2.6509978453 2.7395173884 -2.2529784231
| 26> H 2.6231717993 1.0128347077 -1.8703318585
| 27> H 1.1362202553 1.9585927584 -1.773872598
| 28> H 2.1657105359 3.3190842662 0.1031682663
| 29> H 3.6003585096 2.2604727041 0.0231656565
| 30> H 3.683194071 -2.1474530168 -0.2019743582
| 31> H 5.183495778 -1.1842192496 -0.2815942804
| 32> H 3.9184363709 -2.2949856205 2.2808078251
| 33> H 5.360317895 -2.9346427258 1.477368598
| 34> H 5.3872011845 -1.3201923898 2.2062571024
| 35> H 0.1984407139 -2.4717740023 1.039547428
| 36> H -0.6938716837 -2.5766401522 -0.5258893405
| 37> H -1.7663906187 2.0624022877 1.0108967255
| 38> H -0.3290785639 2.8379735478 0.3073670913
| 39> H -3.2231924616 3.3342321387 -0.5665316377
| 40> H -2.2370419132 4.4412803679 0.4057066115
| 41> H -1.7978255113 4.098523304 -1.2774482238
| 42> H -4.3332498333 -0.3994120061 1.0275496231
| 43> H -5.4438882077 0.5642575709 0.0102502843
| 44> H -4.0185906741 -2.0212473169 -0.8102488527
| 45> H -5.743378792 -1.8566525702 -0.4458106292
| 46> H -5.0507947742 -1.0625327268 -1.8724623092
| 47> *
| 48>
| 49>                          ****END OF INPUT****

CARTESIAN COORDINATES (ANGSTROEM)
---------------------------------
  C      2.211209    1.985713   -1.607274
  C      2.527569    2.324924   -0.165291
  O      1.850727    1.456825    0.778105
  P      2.091395   -0.097878    0.921224
  S      1.562404   -0.717019    2.700644
  O      3.626082   -0.206072    0.516994
  C      4.327670   -1.450750    0.342016
  C      4.777471   -2.038633    1.665032
  S      1.094914   -1.070354   -0.704396
  C     -0.220234   -1.917849    0.200430
  S     -1.463639   -0.813061    0.917903
  P     -2.064078    0.164056   -0.886829
  S     -1.836338   -0.818054   -2.559977
  O     -1.249717    1.518826   -0.930847
  C     -1.354549    2.522504    0.107810
  C     -2.211829    3.677729   -0.365404
  O     -3.519634    0.690443   -0.521818
  C     -4.590469   -0.116190    0.002861
  C     -4.870852   -1.343851   -0.837611
  H      2.650998    2.739517   -2.252978
  H      2.623172    1.012835   -1.870332
  H      1.136220    1.958593   -1.773873
  H      2.165711    3.319084    0.103168
  H      3.600359    2.260473    0.023166
  H      3.683194   -2.147453   -0.201974
  H      5.183496   -1.184219   -0.281594
  H      3.918436   -2.294986    2.280808
  H      5.360318   -2.934643    1.477369
  H      5.387201   -1.320192    2.206257
  H      0.198441   -2.471774    1.039547
  H     -0.693872   -2.576640   -0.525889
  H     -1.766391    2.062402    1.010897
  H     -0.329079    2.837974    0.307367
  H     -3.223192    3.334232   -0.566532
  H     -2.237042    4.441280    0.405707
  H     -1.797826    4.098523   -1.277448
  H     -4.333250   -0.399412    1.027550
  H     -5.443888    0.564258    0.010250
  H     -4.018591   -2.021247   -0.810249
  H     -5.743379   -1.856653   -0.445811
  H     -5.050795   -1.062533   -1.872462

 Total Charge           Charge          ....    0
 Multiplicity           Mult            ....    1
 Number of Electrons    NEL             ....  202
 Basis Dimension        Dim             ....  334

ORBITAL ENERGIES
----------------

  NO   OCC          E(Eh)            E(eV)
   0   2.0000     -88.042164     -2395.7491
   1   2.0000     -88.040838     -2395.7130
   2   2.0000     -87.983863     -2394.1626
   3   2.0000     -87.982152     -2394.1161
   4   2.0000     -76.426489     -2079.6705
   5   2.0000     -76.425270     -2079.6373
   6   2.0000     -18.797224      -511.4985
   7   2.0000     -18.795468      -511.4507
   8   2.0000     -18.791578      -511.3448
   9   2.0000     -18.788884      -511.2715
  10   2.0000      -9.958745      -270.9912
  11   2.0000      -9.957294      -270.9517
  12   2.0000      -9.956828      -270.9391
  13   2.0000      -9.954137      -270.8659
  14   2.0000      -9.951556      -270.7956
  15   2.0000      -9.884827      -268.9798
  16   2.0000      -9.884512      -268.9712
  17   2.0000      -9.883568      -268.9456
  18   2.0000      -9.881827      -268.8982
  19   2.0000      -7.686171      -209.1513
  20   2.0000      -7.685373      -209.1296
  21   2.0000      -7.629075      -207.5977
  22   2.0000      -7.627511      -207.5551
  23   2.0000      -6.423760      -174.7994
  24   2.0000      -6.422321      -174.7602
  25   2.0000      -5.714084      -155.4881
  26   2.0000      -5.713176      -155.4634
  27   2.0000      -5.710547      -155.3919
  28   2.0000      -5.709863      -155.3733
  29   2.0000      -5.703399      -155.1974
  30   2.0000      -5.702553      -155.1744
  31   2.0000      -5.658128      -153.9655
  32   2.0000      -5.656661      -153.9256
  33   2.0000      -5.649471      -153.7299
  34   2.0000      -5.649286      -153.7249
  35   2.0000      -5.647949      -153.6885
  36   2.0000      -5.647579      -153.6784
  37   2.0000      -4.646719      -126.4436
  38   2.0000      -4.645453      -126.4092
  39   2.0000      -4.645189      -126.4020
  40   2.0000      -4.644295      -126.3777
  41   2.0000      -4.643985      -126.3693
  42   2.0000      -4.642398      -126.3261
  43   2.0000      -0.990194       -26.9445
  44   2.0000      -0.988397       -26.8956
  45   2.0000      -0.945032       -25.7156
  46   2.0000      -0.943683       -25.6789
  47   2.0000      -0.761761       -20.7286
  48   2.0000      -0.719325       -19.5738
  49   2.0000      -0.711184       -19.3523
  50   2.0000      -0.691286       -18.8109
  51   2.0000      -0.690674       -18.7942
  52   2.0000      -0.673994       -18.3403
  53   2.0000      -0.649496       -17.6737
  54   2.0000      -0.638982       -17.3876
  55   2.0000      -0.591965       -16.1082
  56   2.0000      -0.588699       -16.0193
  57   2.0000      -0.580439       -15.7946
  58   2.0000      -0.572838       -15.5877
  59   2.0000      -0.566573       -15.4172
  60   2.0000      -0.506086       -13.7713
  61   2.0000      -0.498319       -13.5599
  62   2.0000      -0.475641       -12.9428
  63   2.0000      -0.472785       -12.8651
  64   2.0000      -0.458002       -12.4629
  65   2.0000      -0.452195       -12.3048
  66   2.0000      -0.441095       -12.0028
  67   2.0000      -0.435197       -11.8423
  68   2.0000      -0.425847       -11.5879
  69   2.0000      -0.414410       -11.2767
  70   2.0000      -0.410533       -11.1712
  71   2.0000      -0.402471       -10.9518
  72   2.0000      -0.399894       -10.8817
  73   2.0000      -0.387732       -10.5507
  74   2.0000      -0.381939       -10.3931
  75   2.0000      -0.370706       -10.0874
  76   2.0000      -0.357847        -9.7375
  77   2.0000      -0.355423        -9.6716
  78   2.0000      -0.353328        -9.6145
  79   2.0000      -0.349971        -9.5232
  80   2.0000      -0.347990        -9.4693
  81   2.0000      -0.344826        -9.3832
  82   2.0000      -0.341430        -9.2908
  83   2.0000      -0.338355        -9.2071
  84   2.0000      -0.334789        -9.1101
  85   2.0000      -0.325386        -8.8542
  86   2.0000      -0.313328        -8.5261
  87   2.0000      -0.299728        -8.1560
  88   2.0000      -0.297195        -8.0871
  89   2.0000      -0.292812        -7.9678
  90   2.0000      -0.289332        -7.8731
  91   2.0000      -0.278532        -7.5792
  92   2.0000      -0.275831        -7.5057
  93   2.0000      -0.265045        -7.2122
  94   2.0000      -0.255251        -6.9457
  95   2.0000      -0.235224        -6.4008
  96   2.0000      -0.215835        -5.8732
  97   2.0000      -0.209515        -5.7012
  98   2.0000      -0.204443        -5.5632
  99   2.0000      -0.192951        -5.2505
 100   2.0000      -0.190738        -5.1903
 101   0.0000      -0.043533        -1.1846
 102   0.0000      -0.027185        -0.7398
 103   0.0000      -0.004926        -0.1340
 104   0.0000       0.003100         0.0844
 105   0.0000       0.005563         0.1514

MULLIKEN ATOMIC CHARGES
-----------------------
   0 C :   -0.341385
   1 C :   -0.004043
   2 O :   -0.368331
   3 P :    0.619556
   4 S :   -0.314236
   5 O :   -0.384171
   6 C :   -0.009464
   7 C :   -0.298178
   8 S :   -0.096816
   9 C :   -0.325823
  10 S :   -0.093730
  11 P :    0.593378
  12 S :   -0.309998
  13 O :   -0.354224
  14 C :   -0.024763
  15 C :   -0.282893
  16 O :   -0.381180
  17 C :   -0.006432
  18 C :   -0.310020
  19 H :    0.112534
  20 H :    0.121389
  21 H :    0.154860
  22 H :    0.110113
  23 H :    0.113590
  24 H :    0.103254
  25 H :    0.105245
  26 H :    0.128939
  27 H :    0.107893
  28 H :    0.115454
  29 H :    0.182012
  30 H :    0.186712
  31 H :    0.102910
  32 H :    0.122306
  33 H :    0.118714
  34 H :    0.108760
  35 H :    0.115024
  36 H :    0.112844
  37 H :    0.107474
  38 H :    0.123880
  39 H :    0.111439
  40 H :    0.127406
Sum of atomic charges:   -0.0000000

LOEWDIN ATOMIC CHARGES
----------------------
   0 C :   -0.373124
   1 C :   -0.111924
   2 O :   -0.238220
   3 P :    0.565161
   4 S :   -0.306817
   5 O :   -0.245826
   6 C :   -0.117731
   7 C :   -0.365981
   8 S :    0.092388
   9 C :   -0.479909
  10 S :    0.072690
  11 P :    0.565001
  12 S :   -0.309411
  13 O :   -0.233107
  14 C :   -0.117709
  15 C :   -0.356987
  16 O :   -0.246320
  17 C :   -0.115532
  18 C :   -0.369084
  19 H :    0.131397
  20 H :    0.117451
  21 H :    0.133904
  22 H :    0.117147
  23 H :    0.115093
  24 H :    0.103722
  25 H :    0.118118
  26 H :    0.122805
  27 H :    0.128894
  28 H :    0.127215
  29 H :    0.129015
  30 H :    0.132000
  31 H :    0.106137
  32 H :    0.118293
  33 H :    0.126099
  34 H :    0.128788
  35 H :    0.126570
  36 H :    0.108651
  37 H :    0.120268
  38 H :    0.120453
  39 H :    0.130082
  40 H :    0.130341

  Mayer bond orders larger than 0.100000
B(  0-C ,  1-C ) :   1.1729 B(  0-C , 19-H ) :   0.9350 B(  0-C , 20-H ) :   0.9356
B(  0-C , 21-H ) :   0.9282 B(  1-C ,  2-O ) :   0.8903 B(  1-C , 22-H ) :   0.9270
B(  1-C , 23-H ) :   0.9267 B(  2-O ,  3-P ) :   1.1241 B(  3-P ,  4-S ) :   1.6515
B(  3-P ,  5-O ) :   1.0708 B(  3-P ,  8-S ) :   0.9412 B(  4-S ,  8-S ) :   0.1149
B(  5-O ,  6-C ) :   0.9105 B(  6-C ,  7-C ) :   1.1661 B(  6-C , 24-H ) :   0.9134
B(  6-C , 25-H ) :   0.9357 B(  7-C , 26-H ) :   0.9306 B(  7-C , 27-H ) :   0.9382
B(  7-C , 28-H ) :   0.9472 B(  8-S ,  9-C ) :   1.0119 B(  9-C , 10-S ) :   1.0012
B(  9-C , 29-H ) :   0.8848 B(  9-C , 30-H ) :   0.8890 B( 10-S , 11-P ) :   0.9497
B( 10-S , 12-S ) :   0.1127 B( 11-P , 12-S ) :   1.6429 B( 11-P , 13-O ) :   1.1153
B( 11-P , 16-O ) :   1.0753 B( 13-O , 14-C ) :   0.8843 B( 14-C , 15-C ) :   1.1609
B( 14-C , 31-H ) :   0.9155 B( 14-C , 32-H ) :   0.9220 B( 15-C , 33-H ) :   0.9431
B( 15-C , 34-H ) :   0.9411 B( 15-C , 35-H ) :   0.9480 B( 16-O , 17-C ) :   0.9124
B( 17-C , 18-C ) :   1.1678 B( 17-C , 36-H ) :   0.9256 B( 17-C , 37-H ) :   0.9330
B( 18-C , 38-H ) :   0.9334 B( 18-C , 39-H ) :   0.9346 B( 18-C , 40-H ) :   0.9426

Dispersion correction           -0.066776740
FINAL SINGLE POINT ENERGY     -2929.519467251214

DIPOLE MOMENT
-------------

Method             : SCF
Type of density    : Electron Density
Multiplicity       :   1
Irrep              :   0
Energy             : -2929.6390931358469061 Eh
Relativity type    :
Basis              : AO
                                X                 Y                 Z
Electronic contribution:     -1.016339770      -7.419521487       1.942158433
Nuclear contribution   :      1.196377723       7.933640249      -1.907519361
                        -----------------------------------------
Total Dipole Moment    :      0.180037953       0.514118762       0.034639072
                        -----------------------------------------
Magnitude (a.u.)       :      0.545831138
Magnitude (Debye)      :      1.387392495

Rotational constants in cm-1:             0.013018             0.005137             0.004705
Rotational constants in MHz :           390.284546           153.990039           141.058049

                             ****ORCA TERMINATED NORMALLY****
TOTAL RUN TIME: 0 days 0 hours 0 minutes 21 seconds 409 msec
