                         Program Version 6.0.0  -   RELEASE  -
|  1> ! pbe def2-sv(p) def2/J RI DEFGRID1 loosescf d4 GCP(DFT/SV(P)) printgap
|  2> %output
|  3>     printlevel normal
|  4> end
|  5> * xyz 0 1
|  6> C 3.399466813 -2.7620316458 -1.3966011839
|  7> C 4.435728581 -1.8370019667 -0.7969138737
|  8> O 4.0220803172 -0.4464147921 -0.8200423521
|  9> P 2.7445742921 0.143629308 -0.1217655052
| 10> S 2.9003930799 2.069310478 0.2007459761
| 11> O 2.6253466166 -0.7589514376 1.1830969013
| 12> C 1.7270666737 -0.451146616 2.2659208414
| 13> C 2.2979972283 -1.0564767356 3.5323395518
| 14> S 1.0992614969 -0.4055049182 -1.3801568634
| 15> C 0.0655511486 1.0559690684 -1.1359843146
| 16> S -0.9035059809 1.0027980766 0.3905343867
| 17> P -2.8015413327 0.3930955171 -0.3998272454
| 18> S -2.9073588981 0.2335818665 -2.3482359901
| 19> O -3.8210150379 1.4599307857 0.1484084456
| 20> C -3.7821450638 2.1161267352 1.4389316092
| 21> C -3.6623937628 1.1417344343 2.5897626653
| 22> O -3.2337532723 -0.9197423875 0.3880839233
| 23> C -2.8734649311 -2.2446537878 -0.0336520699
| 24> C -1.4775567619 -2.6202875162 0.4227420548
| 25> H 3.8028478316 -3.7691412096 -1.4357110592
| 26> H 2.4982308106 -2.7650891236 -0.7870157304
| 27> H 3.1383975123 -2.4418158219 -2.4022733068
| 28> H 5.3564218816 -1.8284810866 -1.3821560893
| 29> H 4.6527749033 -2.1083787096 0.2374715744
| 30> H 1.628970232 0.6364799835 2.3481318011
| 31> H 0.749681364 -0.8768557771 2.0257958296
| 32> H 3.2670627128 -0.61732098 3.7525314325
| 33> H 1.6210787051 -0.8575793713 4.356457325
| 34> H 2.415123486 -2.1294673459 3.4124142872
| 35> H -0.6169509059 1.1055968596 -1.9867776649
| 36> H 0.7087075607 1.9348724361 -1.0792475104
| 37> H -2.945813503 2.8200072568 1.4362519324
| 38> H -4.7256408892 2.6632545459 1.4666369431
| 39> H -4.4578449617 0.4029228517 2.5427012378
| 40> H -2.7010991652 0.6327299125 2.5472354877
| 41> H -3.731124509 1.6881834571 3.5253041456
| 42> H -3.6282853071 -2.8832979794 0.4281442884
| 43> H -2.9580265032 -2.3035063497 -1.1239442004
| 44> H -0.7356186776 -2.0193518297 -0.0999097483
| 45> H -1.3811719204 -2.4642513413 1.4941464101
| 46> H -1.2982589087 -3.6660577883 0.1949990448
| 47> *
| 48>
| 49>                          ****END OF INPUT****

CARTESIAN COORDINATES (ANGSTROEM)
---------------------------------
  C      3.399467   -2.762032   -1.396601
  C      4.435729   -1.837002   -0.796914
  O      4.022080   -0.446415   -0.820042
  P      2.744574    0.143629   -0.121766
  S      2.900393    2.069310    0.200746
  O      2.625347   -0.758951    1.183097
  C      1.727067   -0.451147    2.265921
  C      2.297997   -1.056477    3.532340
  S      1.099261   -0.405505   -1.380157
  C      0.065551    1.055969   -1.135984
  S     -0.903506    1.002798    0.390534
  P     -2.801541    0.393096   -0.399827
  S     -2.907359    0.233582   -2.348236
  O     -3.821015    1.459931    0.148408
  C     -3.782145    2.116127    1.438932
  C     -3.662394    1.141734    2.589763
  O     -3.233753   -0.919742    0.388084
  C     -2.873465   -2.244654   -0.033652
  C     -1.477557   -2.620288    0.422742
  H      3.802848   -3.769141   -1.435711
  H      2.498231   -2.765089   -0.787016
  H      3.138398   -2.441816   -2.402273
  H      5.356422   -1.828481   -1.382156
  H      4.652775   -2.108379    0.237472
  H      1.628970    0.636480    2.348132
  H      0.749681   -0.876856    2.025796
  H      3.267063   -0.617321    3.752531
  H      1.621079   -0.857579    4.356457
  H      2.415123   -2.129467    3.412414
  H     -0.616951    1.105597   -1.986778
  H      0.708708    1.934872   -1.079248
  H     -2.945814    2.820007    1.436252
  H     -4.725641    2.663255    1.466637
  H     -4.457845    0.402923    2.542701
  H     -2.701099    0.632730    2.547235
  H     -3.731125    1.688183    3.525304
  H     -3.628285   -2.883298    0.428144
  H     -2.958027   -2.303506   -1.123944
  H     -0.735619   -2.019352   -0.099910
  H     -1.381172   -2.464251    1.494146
  H     -1.298259   -3.666058    0.194999

 Total Charge           Charge          ....    0
 Multiplicity           Mult            ....    1
 Number of Electrons    NEL             ....  202
 Basis Dimension        Dim             ....  334

ORBITAL ENERGIES
----------------

  NO   OCC          E(Eh)            E(eV)
   0   2.0000     -88.045906     -2395.8509
   1   2.0000     -88.043864     -2395.7954
   2   2.0000     -87.988359     -2394.2850
   3   2.0000     -87.988071     -2394.2771
   4   2.0000     -76.429486     -2079.7520
   5   2.0000     -76.429010     -2079.7391
   6   2.0000     -18.797307      -511.5007
   7   2.0000     -18.796511      -511.4791
   8   2.0000     -18.793716      -511.4030
   9   2.0000     -18.793302      -511.3917
  10   2.0000      -9.963382      -271.1174
  11   2.0000      -9.961067      -271.0544
  12   2.0000      -9.955177      -270.8941
  13   2.0000      -9.953517      -270.8490
  14   2.0000      -9.948514      -270.7128
  15   2.0000      -9.895584      -269.2725
  16   2.0000      -9.894136      -269.2331
  17   2.0000      -9.891961      -269.1740
  18   2.0000      -9.885682      -269.0031
  19   2.0000      -7.690254      -209.2625
  20   2.0000      -7.687989      -209.2008
  21   2.0000      -7.633531      -207.7190
  22   2.0000      -7.633225      -207.7106
  23   2.0000      -6.427031      -174.8884
  24   2.0000      -6.426496      -174.8739
  25   2.0000      -5.718006      -155.5949
  26   2.0000      -5.715843      -155.5360
  27   2.0000      -5.714730      -155.5057
  28   2.0000      -5.712400      -155.4423
  29   2.0000      -5.707514      -155.3094
  30   2.0000      -5.705247      -155.2477
  31   2.0000      -5.662494      -154.0843
  32   2.0000      -5.662206      -154.0765
  33   2.0000      -5.654117      -153.8564
  34   2.0000      -5.653637      -153.8433
  35   2.0000      -5.653632      -153.8432
  36   2.0000      -5.653504      -153.8397
  37   2.0000      -4.650006      -126.5331
  38   2.0000      -4.649107      -126.5086
  39   2.0000      -4.648546      -126.4934
  40   2.0000      -4.648221      -126.4845
  41   2.0000      -4.647340      -126.4605
  42   2.0000      -4.646973      -126.4506
  43   2.0000      -0.993223       -27.0270
  44   2.0000      -0.989176       -26.9169
  45   2.0000      -0.948956       -25.8224
  46   2.0000      -0.947651       -25.7869
  47   2.0000      -0.762028       -20.7358
  48   2.0000      -0.726014       -19.7558
  49   2.0000      -0.717049       -19.5119
  50   2.0000      -0.698680       -19.0121
  51   2.0000      -0.694149       -18.8888
  52   2.0000      -0.679774       -18.4976
  53   2.0000      -0.652289       -17.7497
  54   2.0000      -0.638515       -17.3749
  55   2.0000      -0.603881       -16.4324
  56   2.0000      -0.598265       -16.2796
  57   2.0000      -0.578932       -15.7535
  58   2.0000      -0.577997       -15.7281
  59   2.0000      -0.560883       -15.2624
  60   2.0000      -0.510094       -13.8804
  61   2.0000      -0.496516       -13.5109
  62   2.0000      -0.480826       -13.0839
  63   2.0000      -0.476794       -12.9742
  64   2.0000      -0.461022       -12.5450
  65   2.0000      -0.450834       -12.2678
  66   2.0000      -0.448278       -12.1983
  67   2.0000      -0.442058       -12.0290
  68   2.0000      -0.435554       -11.8520
  69   2.0000      -0.428039       -11.6475
  70   2.0000      -0.410165       -11.1612
  71   2.0000      -0.403320       -10.9749
  72   2.0000      -0.399038       -10.8584
  73   2.0000      -0.390336       -10.6216
  74   2.0000      -0.379688       -10.3318
  75   2.0000      -0.375447       -10.2164
  76   2.0000      -0.370965       -10.0945
  77   2.0000      -0.362435        -9.8624
  78   2.0000      -0.359465        -9.7816
  79   2.0000      -0.358724        -9.7614
  80   2.0000      -0.355709        -9.6793
  81   2.0000      -0.350296        -9.5320
  82   2.0000      -0.347625        -9.4594
  83   2.0000      -0.346026        -9.4158
  84   2.0000      -0.339720        -9.2443
  85   2.0000      -0.320099        -8.7103
  86   2.0000      -0.311896        -8.4871
  87   2.0000      -0.305699        -8.3185
  88   2.0000      -0.299847        -8.1592
  89   2.0000      -0.297521        -8.0960
  90   2.0000      -0.294207        -8.0058
  91   2.0000      -0.279252        -7.5988
  92   2.0000      -0.276488        -7.5236
  93   2.0000      -0.264950        -7.2096
  94   2.0000      -0.261142        -7.1060
  95   2.0000      -0.233294        -6.3482
  96   2.0000      -0.220095        -5.9891
  97   2.0000      -0.213244        -5.8027
  98   2.0000      -0.205432        -5.5901
  99   2.0000      -0.203163        -5.5283
 100   2.0000      -0.202020        -5.4972
 101   0.0000      -0.045912        -1.2493
 102   0.0000      -0.032476        -0.8837
 103   0.0000      -0.014990        -0.4079
 104   0.0000       0.000712         0.0194
 105   0.0000       0.008295         0.2257

MULLIKEN ATOMIC CHARGES
-----------------------
   0 C :   -0.342606
   1 C :    0.008890
   2 O :   -0.361259
   3 P :    0.610788
   4 S :   -0.308128
   5 O :   -0.387693
   6 C :   -0.036727
   7 C :   -0.272801
   8 S :   -0.111926
   9 C :   -0.336227
  10 S :   -0.130621
  11 P :    0.599654
  12 S :   -0.305674
  13 O :   -0.358228
  14 C :   -0.003331
  15 C :   -0.317454
  16 O :   -0.372374
  17 C :   -0.001115
  18 C :   -0.344738
  19 H :    0.120277
  20 H :    0.133543
  21 H :    0.134852
  22 H :    0.114870
  23 H :    0.111970
  24 H :    0.107861
  25 H :    0.120311
  26 H :    0.120307
  27 H :    0.111069
  28 H :    0.111967
  29 H :    0.194831
  30 H :    0.198265
  31 H :    0.116754
  32 H :    0.114710
  33 H :    0.126935
  34 H :    0.122639
  35 H :    0.117183
  36 H :    0.103777
  37 H :    0.111345
  38 H :    0.151203
  39 H :    0.117749
  40 H :    0.109151
Sum of atomic charges:   -0.0000000

LOEWDIN ATOMIC CHARGES
----------------------
   0 C :   -0.374101
   1 C :   -0.105972
   2 O :   -0.234687
   3 P :    0.569750
   4 S :   -0.301136
   5 O :   -0.251670
   6 C :   -0.125919
   7 C :   -0.350120
   8 S :    0.083967
   9 C :   -0.491878
  10 S :    0.072410
  11 P :    0.569502
  12 S :   -0.297947
  13 O :   -0.234976
  14 C :   -0.113252
  15 C :   -0.367372
  16 O :   -0.243177
  17 C :   -0.118583
  18 C :   -0.373965
  19 H :    0.135257
  20 H :    0.120041
  21 H :    0.130229
  22 H :    0.124887
  23 H :    0.116175
  24 H :    0.105895
  25 H :    0.108081
  26 H :    0.128762
  27 H :    0.130806
  28 H :    0.124580
  29 H :    0.127379
  30 H :    0.128238
  31 H :    0.112572
  32 H :    0.124897
  33 H :    0.130859
  34 H :    0.115717
  35 H :    0.133162
  36 H :    0.117686
  37 H :    0.110058
  38 H :    0.112394
  39 H :    0.121504
  40 H :    0.129949

  Mayer bond orders larger than 0.100000
B(  0-C ,  1-C ) :   1.1704 B(  0-C , 19-H ) :   0.9347 B(  0-C , 20-H ) :   0.9329
B(  0-C , 21-H ) :   0.9399 B(  1-C ,  2-O ) :   0.8942 B(  1-C , 22-H ) :   0.9336
B(  1-C , 23-H ) :   0.9280 B(  2-O ,  3-P ) :   1.1541 B(  3-P ,  4-S ) :   1.6508
B(  3-P ,  5-O ) :   1.0658 B(  3-P ,  8-S ) :   0.9354 B(  4-S ,  8-S ) :   0.1134
B(  5-O ,  6-C ) :   0.9021 B(  6-C ,  7-C ) :   1.1587 B(  6-C , 24-H ) :   0.9064
B(  6-C , 25-H ) :   0.9172 B(  7-C , 26-H ) :   0.9499 B(  7-C , 27-H ) :   0.9418
B(  7-C , 28-H ) :   0.9506 B(  8-S ,  9-C ) :   1.0181 B(  9-C , 10-S ) :   1.0084
B(  9-C , 29-H ) :   0.8496 B(  9-C , 30-H ) :   0.8601 B( 10-S , 11-P ) :   0.9352
B( 10-S , 12-S ) :   0.1120 B( 11-P , 12-S ) :   1.6346 B( 11-P , 13-O ) :   1.1500
B( 11-P , 16-O ) :   1.0865 B( 12-S , 29-H ) :   0.1111 B( 13-O , 14-C ) :   0.9017
B( 14-C , 15-C ) :   1.1695 B( 14-C , 31-H ) :   0.9218 B( 14-C , 32-H ) :   0.9333
B( 15-C , 33-H ) :   0.9417 B( 15-C , 34-H ) :   0.9369 B( 15-C , 35-H ) :   0.9344
B( 16-O , 17-C ) :   0.9133 B( 17-C , 18-C ) :   1.1621 B( 17-C , 36-H ) :   0.9343
B( 17-C , 37-H ) :   0.9090 B( 18-C , 38-H ) :   0.9196 B( 18-C , 39-H ) :   0.9398
B( 18-C , 40-H ) :   0.9365

Dispersion correction           -0.063527527
FINAL SINGLE POINT ENERGY     -2929.515989548120

DIPOLE MOMENT
-------------

Method             : SCF
Type of density    : Electron Density
Multiplicity       :   1
Irrep              :   0
Energy             : -2929.6380262725429020 Eh
Relativity type    :
Basis              : AO
                                X                 Y                 Z
Electronic contribution:     -0.622230896      16.695751889     -17.231667446
Nuclear contribution   :      0.658091024     -18.254669558      18.837497107
                        -----------------------------------------
Total Dipole Moment    :      0.035860128      -1.558917669       1.605829661
                        -----------------------------------------
Magnitude (a.u.)       :      2.238347414
Magnitude (Debye)      :      5.689426981

Rotational constants in cm-1:             0.011803             0.004598             0.004399
Rotational constants in MHz :           353.839990           137.850463           131.870249

                             ****ORCA TERMINATED NORMALLY****
TOTAL RUN TIME: 0 days 0 hours 0 minutes 21 seconds 469 msec
