                         Program Version 6.0.1  -  RELEASE   -
|  1> ! pbe def2-sv(p) def2/J RI DEFGRID1 loosescf d4 GCP(DFT/SV(P)) printgap
|  2> %output
|  3>     printlevel normal
|  4> end
|  5> * xyz 0 1
|  6> C 5.3906811634 -1.7248048136 -1.338628906
|  7> C 4.5753512493 -0.4527125627 -1.1691732534
|  8> O 3.1651054743 -0.7252892375 -1.2814862332
|  9> C 2.5082002234 -1.0891590386 -0.1982966475
| 10> O 2.9994140352 -1.2096247387 0.9002054984
| 11> C 1.0405852098 -1.3433846258 -0.5032892045
| 12> C 0.4012034461 -0.1028319406 -1.1315406697
| 13> H 0.9165093354 0.1482342738 -2.0620759605
| 14> C 0.4610181733 1.0741163485 -0.1799927632
| 15> O -0.5410844858 1.5914211158 0.2779818466
| 16> O 1.6797879822 1.4388512752 0.0899956393
| 17> C 1.8851650256 2.4812483579 1.0731309461
| 18> C 3.3224146255 2.3965775306 1.5454063599
| 19> S -1.3419729125 -0.3756254867 -1.5789529859
| 20> P -2.3144113423 -0.1539135632 0.2843335972
| 21> S -1.5513660749 -0.5980525061 2.0344066731
| 22> O -3.1755986106 1.1903578844 0.3454383938
| 23> C -3.7922713875 1.7424749091 -0.8297583884
| 24> O -3.413755778 -1.2647426792 -0.163621033
| 25> C -4.4479695633 -1.6618497714 0.7369174873
| 26> H 5.153944199 -2.1985808274 -2.2872113538
| 27> H 6.4473803258 -1.4799524785 -1.3144532809
| 28> H 5.1714150519 -2.4193112062 -0.530807573
| 29> H 4.7793396797 0.2593683824 -1.9686780813
| 30> H 4.7652314643 0.0013051844 -0.1931113613
| 31> H 0.535970413 -1.6130353539 0.4275920408
| 32> H 0.9642511413 -2.1711363101 -1.2094860141
| 33> H 1.6682481104 3.4395355476 0.5932517412
| 34> H 1.1742141233 2.3242768828 1.8898981528
| 35> H 3.5180432313 1.4079908436 1.953982784
| 36> H 4.0001805321 2.5802448886 0.717216094
| 37> H 3.4885610058 3.1399001682 2.3177111519
| 38> H -4.6109795552 2.3593159101 -0.4669938651
| 39> H -4.1623317246 0.9480604689 -1.4796174633
| 40> H -3.0629009504 2.3509106391 -1.3632949457
| 41> H -4.0111269663 -2.0412259398 1.662659496
| 42> H -4.9964410443 -2.4478037434 0.2241490624
| 43> H -5.1032610349 -0.8200412335 0.9658419058
| 44> *
| 45>
| 46>                          ****END OF INPUT****

CARTESIAN COORDINATES (ANGSTROEM)
---------------------------------
  C      5.390681   -1.724805   -1.338629
  C      4.575351   -0.452713   -1.169173
  O      3.165105   -0.725289   -1.281486
  C      2.508200   -1.089159   -0.198297
  O      2.999414   -1.209625    0.900205
  C      1.040585   -1.343385   -0.503289
  C      0.401203   -0.102832   -1.131541
  H      0.916509    0.148234   -2.062076
  C      0.461018    1.074116   -0.179993
  O     -0.541084    1.591421    0.277982
  O      1.679788    1.438851    0.089996
  C      1.885165    2.481248    1.073131
  C      3.322415    2.396578    1.545406
  S     -1.341973   -0.375625   -1.578953
  P     -2.314411   -0.153914    0.284334
  S     -1.551366   -0.598053    2.034407
  O     -3.175599    1.190358    0.345438
  C     -3.792271    1.742475   -0.829758
  O     -3.413756   -1.264743   -0.163621
  C     -4.447970   -1.661850    0.736917
  H      5.153944   -2.198581   -2.287211
  H      6.447380   -1.479952   -1.314453
  H      5.171415   -2.419311   -0.530808
  H      4.779340    0.259368   -1.968678
  H      4.765231    0.001305   -0.193111
  H      0.535970   -1.613035    0.427592
  H      0.964251   -2.171136   -1.209486
  H      1.668248    3.439536    0.593252
  H      1.174214    2.324277    1.889898
  H      3.518043    1.407991    1.953983
  H      4.000181    2.580245    0.717216
  H      3.488561    3.139900    2.317711
  H     -4.610980    2.359316   -0.466994
  H     -4.162332    0.948060   -1.479617
  H     -3.062901    2.350911   -1.363295
  H     -4.011127   -2.041226    1.662659
  H     -4.996441   -2.447804    0.224149
  H     -5.103261   -0.820041    0.965842

 Total Charge           Charge          ....    0
 Multiplicity           Mult            ....    1
 Number of Electrons    NEL             ....  174
 Basis Dimension        Dim             ....  316

ORBITAL ENERGIES
----------------

  NO   OCC          E(Eh)            E(eV)
   0   2.0000     -88.036703     -2395.6005
   1   2.0000     -87.968720     -2393.7506
   2   2.0000     -76.415787     -2079.3793
   3   2.0000     -18.825352      -512.2639
   4   2.0000     -18.805182      -511.7150
   5   2.0000     -18.778690      -510.9941
   6   2.0000     -18.771175      -510.7896
   7   2.0000     -18.758365      -510.4411
   8   2.0000     -18.739974      -509.9406
   9   2.0000     -10.028568      -272.8912
  10   2.0000     -10.011448      -272.4254
  11   2.0000      -9.958018      -270.9714
  12   2.0000      -9.953915      -270.8598
  13   2.0000      -9.952845      -270.8307
  14   2.0000      -9.941536      -270.5229
  15   2.0000      -9.930258      -270.2160
  16   2.0000      -9.907154      -269.5874
  17   2.0000      -9.892593      -269.1911
  18   2.0000      -9.890914      -269.1455
  19   2.0000      -7.681895      -209.0350
  20   2.0000      -7.614033      -207.1884
  21   2.0000      -6.411937      -174.4777
  22   2.0000      -5.710021      -155.3776
  23   2.0000      -5.706535      -155.2827
  24   2.0000      -5.698396      -155.0612
  25   2.0000      -5.643430      -153.5655
  26   2.0000      -5.634908      -153.3337
  27   2.0000      -5.633383      -153.2922
  28   2.0000      -4.634924      -126.1227
  29   2.0000      -4.633901      -126.0949
  30   2.0000      -4.632247      -126.0499
  31   2.0000      -1.035139       -28.1676
  32   2.0000      -1.012939       -27.5635
  33   2.0000      -0.968149       -26.3447
  34   2.0000      -0.937831       -25.5197
  35   2.0000      -0.923308       -25.1245
  36   2.0000      -0.916948       -24.9514
  37   2.0000      -0.769589       -20.9416
  38   2.0000      -0.718003       -19.5379
  39   2.0000      -0.713114       -19.4048
  40   2.0000      -0.686865       -18.6906
  41   2.0000      -0.656306       -17.8590
  42   2.0000      -0.630162       -17.1476
  43   2.0000      -0.616755       -16.7828
  44   2.0000      -0.607600       -16.5336
  45   2.0000      -0.595677       -16.2092
  46   2.0000      -0.564703       -15.3664
  47   2.0000      -0.521828       -14.1997
  48   2.0000      -0.507344       -13.8055
  49   2.0000      -0.501407       -13.6440
  50   2.0000      -0.484064       -13.1721
  51   2.0000      -0.467961       -12.7339
  52   2.0000      -0.463778       -12.6200
  53   2.0000      -0.457709       -12.4549
  54   2.0000      -0.444856       -12.1052
  55   2.0000      -0.428934       -11.6719
  56   2.0000      -0.421160       -11.4603
  57   2.0000      -0.419651       -11.4193
  58   2.0000      -0.410199       -11.1621
  59   2.0000      -0.403419       -10.9776
  60   2.0000      -0.401718       -10.9313
  61   2.0000      -0.392411       -10.6780
  62   2.0000      -0.391703       -10.6588
  63   2.0000      -0.381316       -10.3761
  64   2.0000      -0.373188       -10.1550
  65   2.0000      -0.369895       -10.0654
  66   2.0000      -0.365319        -9.9408
  67   2.0000      -0.356577        -9.7030
  68   2.0000      -0.344901        -9.3852
  69   2.0000      -0.343543        -9.3483
  70   2.0000      -0.335872        -9.1395
  71   2.0000      -0.329205        -8.9581
  72   2.0000      -0.326636        -8.8882
  73   2.0000      -0.315165        -8.5761
  74   2.0000      -0.312827        -8.5125
  75   2.0000      -0.305335        -8.3086
  76   2.0000      -0.296932        -8.0799
  77   2.0000      -0.280836        -7.6419
  78   2.0000      -0.271891        -7.3985
  79   2.0000      -0.262427        -7.1410
  80   2.0000      -0.259005        -7.0479
  81   2.0000      -0.255779        -6.9601
  82   2.0000      -0.239448        -6.5157
  83   2.0000      -0.227810        -6.1990
  84   2.0000      -0.211841        -5.7645
  85   2.0000      -0.190515        -5.1842
  86   2.0000      -0.180700        -4.9171
  87   0.0000      -0.045130        -1.2281
  88   0.0000      -0.039699        -1.0803
  89   0.0000      -0.021740        -0.5916
  90   0.0000       0.008440         0.2297
  91   0.0000       0.031986         0.8704

MULLIKEN ATOMIC CHARGES
-----------------------
   0 C :   -0.301763
   1 C :   -0.022204
   2 O :   -0.241797
   3 C :    0.106498
   4 O :   -0.194991
   5 C :   -0.040128
   6 C :   -0.330132
   7 H :    0.155517
   8 C :    0.221464
   9 O :   -0.188521
  10 O :   -0.220105
  11 C :   -0.029704
  12 C :   -0.297594
  13 S :   -0.062532
  14 P :    0.624414
  15 S :   -0.328701
  16 O :   -0.374576
  17 C :   -0.104026
  18 O :   -0.404181
  19 C :   -0.101653
  20 H :    0.114266
  21 H :    0.113364
  22 H :    0.128981
  23 H :    0.100747
  24 H :    0.114296
  25 H :    0.124418
  26 H :    0.121561
  27 H :    0.108626
  28 H :    0.131910
  29 H :    0.147904
  30 H :    0.113259
  31 H :    0.116081
  32 H :    0.125786
  33 H :    0.113709
  34 H :    0.119501
  35 H :    0.118786
  36 H :    0.118406
  37 H :    0.103112
Sum of atomic charges:   -0.0000000

LOEWDIN ATOMIC CHARGES
----------------------
   0 C :   -0.355373
   1 C :   -0.111334
   2 O :   -0.063273
   3 C :    0.023037
   4 O :   -0.160448
   5 C :   -0.248407
   6 C :   -0.268582
   7 H :    0.149153
   8 C :    0.023867
   9 O :   -0.148080
  10 O :   -0.031250
  11 C :   -0.100318
  12 C :   -0.354621
  13 S :    0.120045
  14 P :    0.589319
  15 S :   -0.321518
  16 O :   -0.250003
  17 C :   -0.213315
  18 O :   -0.284806
  19 C :   -0.219294
  20 H :    0.125070
  21 H :    0.130996
  22 H :    0.131910
  23 H :    0.116718
  24 H :    0.120292
  25 H :    0.136702
  26 H :    0.144269
  27 H :    0.118946
  28 H :    0.129595
  29 H :    0.137227
  30 H :    0.123427
  31 H :    0.133518
  32 H :    0.122453
  33 H :    0.106787
  34 H :    0.113746
  35 H :    0.109933
  36 H :    0.118177
  37 H :    0.105437

  Mayer bond orders larger than 0.100000
B(  0-C ,  1-C ) :   1.1739 B(  0-C , 20-H ) :   0.9485 B(  0-C , 21-H ) :   0.9440
B(  0-C , 22-H ) :   0.9456 B(  1-C ,  2-O ) :   0.9158 B(  1-C , 23-H ) :   0.9374
B(  1-C , 24-H ) :   0.9097 B(  2-O ,  3-C ) :   1.1945 B(  3-C ,  4-O ) :   2.0483
B(  3-C ,  5-C ) :   1.0171 B(  5-C ,  6-C ) :   1.0230 B(  5-C , 25-H ) :   0.8763
B(  5-C , 26-H ) :   0.8869 B(  6-C ,  7-H ) :   0.8673 B(  6-C ,  8-C ) :   0.9038
B(  6-C , 13-S ) :   1.0416 B(  8-C ,  9-O ) :   1.9532 B(  8-C , 10-O ) :   1.2715
B(  9-O , 14-P ) :   0.1290 B( 10-O , 11-C ) :   0.8805 B( 11-C , 12-C ) :   1.1615
B( 11-C , 27-H ) :   0.9357 B( 11-C , 28-H ) :   0.9218 B( 12-C , 29-H ) :   0.9374
B( 12-C , 30-H ) :   0.9455 B( 12-C , 31-H ) :   0.9400 B( 13-S , 14-P ) :   0.9341
B( 13-S , 15-S ) :   0.1077 B( 14-P , 15-S ) :   1.6034 B( 14-P , 16-O ) :   1.0850
B( 14-P , 18-O ) :   1.0289 B( 16-O , 17-C ) :   0.9312 B( 17-C , 32-H ) :   0.9577
B( 17-C , 33-H ) :   0.9394 B( 17-C , 34-H ) :   0.9501 B( 18-O , 19-C ) :   0.9451
B( 19-C , 35-H ) :   0.9373 B( 19-C , 36-H ) :   0.9593 B( 19-C , 37-H ) :   0.9482

Dispersion correction           -0.052007196
FINAL SINGLE POINT ENERGY     -1979.009392663071

DIPOLE MOMENT
-------------

Method             : SCF
Type of density    : Electron Density
Multiplicity       :   1
Irrep              :   0
Energy             : -1979.1406296372638280 Eh
Relativity type    :
Basis              : AO
                                X                 Y                 Z
Electronic contribution:    -17.033264120      -2.770165031       0.846252884
Nuclear contribution   :     17.769922635       3.715912451      -2.256881880
                        -----------------------------------------
Total Dipole Moment    :      0.736658515       0.945747420      -1.410628996
                        -----------------------------------------
Magnitude (a.u.)       :      1.851209905
Magnitude (Debye)      :      4.705401635

Rotational constants in cm-1:             0.017816             0.005714             0.005267
Rotational constants in MHz :           534.118103           171.291547           157.895158

                             ****ORCA TERMINATED NORMALLY****
TOTAL RUN TIME: 0 days 0 hours 0 minutes 30 seconds 132 msec
