                         Program Version 6.0.0  -   RELEASE  -
|  1> ! pbe def2-sv(p) def2/J RI DEFGRID1 loosescf d4 GCP(DFT/SV(P)) printgap
|  2> %output
|  3>     printlevel normal
|  4> end
|  5> * xyz 0 1
|  6> C 3.2548381834 -0.6276008534 -2.7048606226
|  7> C 2.0128789096 -1.0992734975 -1.9790996395
|  8> O 1.4719617208 -0.0558343048 -1.1316263679
|  9> P 1.8447359159 0.1572642183 0.3843316755
| 10> S 0.8824259386 1.6508141761 1.1971810905
| 11> O 3.4248659958 0.3110687059 0.3484491447
| 12> C 4.1774668841 0.8672189502 1.4429356378
| 13> C 4.1574818699 -0.0229420782 2.6683253155
| 14> S 1.5283078709 -1.7338871076 1.2992478834
| 15> C -0.2666411913 -1.5857452369 1.4582146023
| 16> S -1.1509745789 -1.7594950087 -0.1305152776
| 17> P -2.0004177309 0.1416107245 -0.5055010663
| 18> S -1.2046293381 1.4287055781 -1.7618364652
| 19> O -2.241779342 0.6161705156 0.9834631874
| 20> C -2.7172656053 1.9508721451 1.2714498978
| 21> C -2.4845298271 2.2179690211 2.7430065901
| 22> O -3.4885136504 -0.2366674468 -0.9466959369
| 23> C -3.845102844 -0.4530174014 -2.3190362676
| 24> C -3.2205702117 -1.7230713171 -2.8597345413
| 25> H 3.5711986087 -1.400582832 -3.3982740402
| 26> H 3.0371674607 0.283302657 -3.2565642373
| 27> H 4.055049734 -0.4281878599 -1.9974198981
| 28> H 2.2185688502 -1.9813678886 -1.3655360132
| 29> H 1.2018479778 -1.3168317307 -2.6774786502
| 30> H 5.184576809 0.9715992776 1.0367385839
| 31> H 3.7673919538 1.8548381808 1.6756925963
| 32> H 4.8544872875 0.367811341 3.4027000458
| 33> H 3.1598597344 -0.0390483921 3.103453627
| 34> H 4.4420530869 -1.0381488813 2.4037020623
| 35> H -0.5140629208 -0.6219746441 1.9011601601
| 36> H -0.5887424341 -2.4106810226 2.0876693961
| 37> H -2.1646813005 2.6588986685 0.6441223833
| 38> H -3.7778902327 1.9907687488 1.012121227
| 39> H -1.4182106009 2.2011925621 2.9558713483
| 40> H -2.8809992622 3.196772635 2.9912776035
| 41> H -2.9828919145 1.4610853306 3.341620995
| 42> H -4.9342417226 -0.5075018104 -2.3064545643
| 43> H -3.5195382953 0.4158773824 -2.9012782485
| 44> H -2.1341575877 -1.6250845039 -2.8495153348
| 45> H -3.4976830895 -2.5746364249 -2.2440129107
| 46> H -3.551864299 -1.8866724644 -3.8799429531
| 47> *
| 48>
| 49>                          ****END OF INPUT****

CARTESIAN COORDINATES (ANGSTROEM)
---------------------------------
  C      3.254838   -0.627601   -2.704861
  C      2.012879   -1.099273   -1.979100
  O      1.471962   -0.055834   -1.131626
  P      1.844736    0.157264    0.384332
  S      0.882426    1.650814    1.197181
  O      3.424866    0.311069    0.348449
  C      4.177467    0.867219    1.442936
  C      4.157482   -0.022942    2.668325
  S      1.528308   -1.733887    1.299248
  C     -0.266641   -1.585745    1.458215
  S     -1.150975   -1.759495   -0.130515
  P     -2.000418    0.141611   -0.505501
  S     -1.204629    1.428706   -1.761836
  O     -2.241779    0.616171    0.983463
  C     -2.717266    1.950872    1.271450
  C     -2.484530    2.217969    2.743007
  O     -3.488514   -0.236667   -0.946696
  C     -3.845103   -0.453017   -2.319036
  C     -3.220570   -1.723071   -2.859735
  H      3.571199   -1.400583   -3.398274
  H      3.037167    0.283303   -3.256564
  H      4.055050   -0.428188   -1.997420
  H      2.218569   -1.981368   -1.365536
  H      1.201848   -1.316832   -2.677479
  H      5.184577    0.971599    1.036739
  H      3.767392    1.854838    1.675693
  H      4.854487    0.367811    3.402700
  H      3.159860   -0.039048    3.103454
  H      4.442053   -1.038149    2.403702
  H     -0.514063   -0.621975    1.901160
  H     -0.588742   -2.410681    2.087669
  H     -2.164681    2.658899    0.644122
  H     -3.777890    1.990769    1.012121
  H     -1.418211    2.201193    2.955871
  H     -2.880999    3.196773    2.991278
  H     -2.982892    1.461085    3.341621
  H     -4.934242   -0.507502   -2.306455
  H     -3.519538    0.415877   -2.901278
  H     -2.134158   -1.625085   -2.849515
  H     -3.497683   -2.574636   -2.244013
  H     -3.551864   -1.886672   -3.879943

 Total Charge           Charge          ....    0
 Multiplicity           Mult            ....    1
 Number of Electrons    NEL             ....  202
 Basis Dimension        Dim             ....  334

ORBITAL ENERGIES
----------------

  NO   OCC          E(Eh)            E(eV)
   0   2.0000     -88.043329     -2395.7808
   1   2.0000     -88.037717     -2395.6281
   2   2.0000     -87.984012     -2394.1667
   3   2.0000     -87.972438     -2393.8517
   4   2.0000     -76.425151     -2079.6341
   5   2.0000     -76.416434     -2079.3969
   6   2.0000     -18.795809      -511.4600
   7   2.0000     -18.786243      -511.1997
   8   2.0000     -18.784403      -511.1496
   9   2.0000     -18.779005      -511.0027
  10   2.0000      -9.956945      -270.9423
  11   2.0000      -9.954742      -270.8823
  12   2.0000      -9.948518      -270.7129
  13   2.0000      -9.943804      -270.5847
  14   2.0000      -9.943336      -270.5719
  15   2.0000      -9.886333      -269.0208
  16   2.0000      -9.882067      -268.9047
  17   2.0000      -9.880722      -268.8681
  18   2.0000      -9.878599      -268.8104
  19   2.0000      -7.688507      -209.2149
  20   2.0000      -7.682997      -209.0650
  21   2.0000      -7.629054      -207.5971
  22   2.0000      -7.617395      -207.2799
  23   2.0000      -6.422607      -174.7680
  24   2.0000      -6.414152      -174.5379
  25   2.0000      -5.716191      -155.5455
  26   2.0000      -5.712964      -155.4576
  27   2.0000      -5.711322      -155.4130
  28   2.0000      -5.707299      -155.3035
  29   2.0000      -5.705688      -155.2597
  30   2.0000      -5.699666      -155.0958
  31   2.0000      -5.657919      -153.9598
  32   2.0000      -5.649566      -153.7325
  33   2.0000      -5.649301      -153.7253
  34   2.0000      -5.646391      -153.6461
  35   2.0000      -5.638292      -153.4257
  36   2.0000      -5.637231      -153.3968
  37   2.0000      -4.645504      -126.4106
  38   2.0000      -4.644354      -126.3793
  39   2.0000      -4.642803      -126.3371
  40   2.0000      -4.636786      -126.1734
  41   2.0000      -4.636004      -126.1521
  42   2.0000      -4.634420      -126.1090
  43   2.0000      -0.986798       -26.8521
  44   2.0000      -0.978110       -26.6157
  45   2.0000      -0.943706       -25.6795
  46   2.0000      -0.936270       -25.4772
  47   2.0000      -0.760772       -20.7017
  48   2.0000      -0.717410       -19.5217
  49   2.0000      -0.706490       -19.2246
  50   2.0000      -0.689441       -18.7606
  51   2.0000      -0.681204       -18.5365
  52   2.0000      -0.671713       -18.2782
  53   2.0000      -0.648377       -17.6432
  54   2.0000      -0.629273       -17.1234
  55   2.0000      -0.597524       -16.2595
  56   2.0000      -0.585629       -15.9358
  57   2.0000      -0.571791       -15.5592
  58   2.0000      -0.563800       -15.3418
  59   2.0000      -0.559774       -15.2322
  60   2.0000      -0.497609       -13.5406
  61   2.0000      -0.495426       -13.4812
  62   2.0000      -0.473561       -12.8862
  63   2.0000      -0.465108       -12.6562
  64   2.0000      -0.450045       -12.2463
  65   2.0000      -0.446174       -12.1410
  66   2.0000      -0.438981       -11.9453
  67   2.0000      -0.430954       -11.7268
  68   2.0000      -0.425008       -11.5651
  69   2.0000      -0.421343       -11.4653
  70   2.0000      -0.413357       -11.2480
  71   2.0000      -0.389783       -10.6065
  72   2.0000      -0.387602       -10.5472
  73   2.0000      -0.383639       -10.4393
  74   2.0000      -0.379694       -10.3320
  75   2.0000      -0.367685       -10.0052
  76   2.0000      -0.364341        -9.9142
  77   2.0000      -0.356171        -9.6919
  78   2.0000      -0.350207        -9.5296
  79   2.0000      -0.349860        -9.5202
  80   2.0000      -0.347643        -9.4599
  81   2.0000      -0.344580        -9.3765
  82   2.0000      -0.337865        -9.1938
  83   2.0000      -0.331328        -9.0159
  84   2.0000      -0.326970        -8.8973
  85   2.0000      -0.314958        -8.5704
  86   2.0000      -0.305096        -8.3021
  87   2.0000      -0.295590        -8.0434
  88   2.0000      -0.292371        -7.9558
  89   2.0000      -0.287052        -7.8111
  90   2.0000      -0.282715        -7.6931
  91   2.0000      -0.267135        -7.2691
  92   2.0000      -0.266661        -7.2562
  93   2.0000      -0.262981        -7.1561
  94   2.0000      -0.252541        -6.8720
  95   2.0000      -0.236729        -6.4417
  96   2.0000      -0.218273        -5.9395
  97   2.0000      -0.209527        -5.7015
  98   2.0000      -0.200991        -5.4693
  99   2.0000      -0.188411        -5.1269
 100   2.0000      -0.176630        -4.8063
 101   0.0000      -0.042236        -1.1493
 102   0.0000      -0.027335        -0.7438
 103   0.0000      -0.021124        -0.5748
 104   0.0000       0.003069         0.0835
 105   0.0000       0.022597         0.6149

MULLIKEN ATOMIC CHARGES
-----------------------
   0 C :   -0.291589
   1 C :   -0.010972
   2 O :   -0.333094
   3 P :    0.605659
   4 S :   -0.308879
   5 O :   -0.378048
   6 C :   -0.001125
   7 C :   -0.319879
   8 S :   -0.101124
   9 C :   -0.355384
  10 S :   -0.111907
  11 P :    0.615837
  12 S :   -0.308206
  13 O :   -0.377495
  14 C :   -0.001075
  15 C :   -0.290913
  16 O :   -0.377440
  17 C :   -0.001280
  18 C :   -0.325944
  19 H :    0.106997
  20 H :    0.123031
  21 H :    0.119023
  22 H :    0.098890
  23 H :    0.111492
  24 H :    0.105725
  25 H :    0.114267
  26 H :    0.115006
  27 H :    0.128439
  28 H :    0.117208
  29 H :    0.215382
  30 H :    0.183608
  31 H :    0.114603
  32 H :    0.101145
  33 H :    0.132297
  34 H :    0.108548
  35 H :    0.110419
  36 H :    0.101138
  37 H :    0.107054
  38 H :    0.124913
  39 H :    0.120389
  40 H :    0.113286
Sum of atomic charges:    0.0000000

LOEWDIN ATOMIC CHARGES
----------------------
   0 C :   -0.360850
   1 C :   -0.116770
   2 O :   -0.220429
   3 P :    0.570816
   4 S :   -0.295659
   5 O :   -0.244407
   6 C :   -0.116967
   7 C :   -0.371705
   8 S :    0.073519
   9 C :   -0.476710
  10 S :    0.073183
  11 P :    0.565678
  12 S :   -0.303262
  13 O :   -0.241494
  14 C :   -0.115697
  15 C :   -0.354620
  16 O :   -0.251079
  17 C :   -0.125274
  18 C :   -0.370114
  19 H :    0.128407
  20 H :    0.130421
  21 H :    0.123804
  22 H :    0.100411
  23 H :    0.119231
  24 H :    0.118750
  25 H :    0.113365
  26 H :    0.132170
  27 H :    0.121504
  28 H :    0.123365
  29 H :    0.133269
  30 H :    0.138944
  31 H :    0.111788
  32 H :    0.111534
  33 H :    0.125131
  34 H :    0.129697
  35 H :    0.123968
  36 H :    0.116989
  37 H :    0.106329
  38 H :    0.116807
  39 H :    0.124955
  40 H :    0.131004

  Mayer bond orders larger than 0.100000
B(  0-C ,  1-C ) :   1.1631 B(  0-C , 19-H ) :   0.9397 B(  0-C , 20-H ) :   0.9466
B(  0-C , 21-H ) :   0.9412 B(  1-C ,  2-O ) :   0.8918 B(  1-C , 22-H ) :   0.9104
B(  1-C , 23-H ) :   0.9301 B(  2-O ,  3-P ) :   1.1603 B(  3-P ,  4-S ) :   1.6311
B(  3-P ,  5-O ) :   1.0889 B(  3-P ,  8-S ) :   0.9417 B(  4-S ,  8-S ) :   0.1051
B(  5-O ,  6-C ) :   0.9043 B(  6-C ,  7-C ) :   1.1657 B(  6-C , 24-H ) :   0.9339
B(  6-C , 25-H ) :   0.9169 B(  7-C , 26-H ) :   0.9372 B(  7-C , 27-H ) :   0.9344
B(  7-C , 28-H ) :   0.9440 B(  8-S ,  9-C ) :   1.0010 B(  9-C , 10-S ) :   0.9959
B(  9-C , 29-H ) :   0.8613 B(  9-C , 30-H ) :   0.9111 B( 10-S , 11-P ) :   0.9451
B( 10-S , 12-S ) :   0.1065 B( 11-P , 12-S ) :   1.6472 B( 11-P , 13-O ) :   1.1187
B( 11-P , 16-O ) :   1.0766 B( 13-O , 14-C ) :   0.8883 B( 14-C , 15-C ) :   1.1638
B( 14-C , 31-H ) :   0.9101 B( 14-C , 32-H ) :   0.9313 B( 15-C , 33-H ) :   0.9433
B( 15-C , 34-H ) :   0.9411 B( 15-C , 35-H ) :   0.9492 B( 16-O , 17-C ) :   0.9227
B( 17-C , 18-C ) :   1.1616 B( 17-C , 36-H ) :   0.9318 B( 17-C , 37-H ) :   0.9075
B( 18-C , 38-H ) :   0.9310 B( 18-C , 39-H ) :   0.9438 B( 18-C , 40-H ) :   0.9391

Dispersion correction           -0.067969215
FINAL SINGLE POINT ENERGY     -2929.512365461486

DIPOLE MOMENT
-------------

Method             : SCF
Type of density    : Electron Density
Multiplicity       :   1
Irrep              :   0
Energy             : -2929.6301447469663799 Eh
Relativity type    :
Basis              : AO
                                X                 Y                 Z
Electronic contribution:     -3.091005414      -0.159468178       0.537300040
Nuclear contribution   :      3.434318051      -0.647739426      -0.220815806
                        -----------------------------------------
Total Dipole Moment    :      0.343312638      -0.807207604       0.316484234
                        -----------------------------------------
Magnitude (a.u.)       :      0.932528795
Magnitude (Debye)      :      2.370299826

Rotational constants in cm-1:             0.011567             0.005942             0.005106
Rotational constants in MHz :           346.769642           178.127572           153.081651

                             ****ORCA TERMINATED NORMALLY****
TOTAL RUN TIME: 0 days 0 hours 0 minutes 21 seconds 483 msec
