                         Program Version 6.0.0  -   RELEASE  -
|  1> ! pbe def2-sv(p) def2/J RI DEFGRID1 loosescf d4 GCP(DFT/SV(P)) printgap
|  2> %output
|  3>     printlevel normal
|  4> end
|  5> * xyz 0 1
|  6> C 4.7899118182 -1.4455354261 0.0867629087
|  7> C 4.0027734344 -1.7419307805 -1.1709034946
|  8> O 3.1700421444 -0.633413141 -1.5867090343
|  9> P 2.0472817844 0.0814964151 -0.7378133786
| 10> S 0.8868998931 1.103944671 -1.9366368362
| 11> O 2.8901204893 0.9230547735 0.307838398
| 12> C 2.4459470282 2.113086943 0.9774734989
| 13> C 3.6480575063 3.0149445325 1.1705442453
| 14> S 1.1381616714 -1.4942133991 0.3730846952
| 15> C -0.2942246858 -1.7922837884 -0.715157251
| 16> S -1.8777854133 -1.8131511155 0.1559967177
| 17> P -2.1135004 0.2723273732 0.5254545543
| 18> S -0.699419743 1.1806318449 1.5280278055
| 19> O -3.5779475777 0.3299311796 1.138179114
| 20> C -4.073125834 -0.5177222567 2.192827045
| 21> C -3.1826821171 -0.5127231062 3.4170877183
| 22> O -2.3066689902 1.0095574082 -0.8509878496
| 23> C -3.3576420458 0.7557947731 -1.8152315626
| 24> C -2.8797162691 -0.1773031855 -2.9109016788
| 25> H 5.3741214092 -0.537776848 -0.0379534502
| 26> H 4.1133340832 -1.3150745262 0.9296676824
| 27> H 5.455723694 -2.2777996347 0.2932309319
| 28> H 3.362081489 -2.6159100891 -1.0276179747
| 29> H 4.6556966213 -1.8956136242 -2.0312264613
| 30> H 1.6724337182 2.5978723686 0.372270609
| 31> H 2.0012911285 1.821117864 1.9324129428
| 32> H 4.0647579708 3.2931787883 0.2061283022
| 33> H 3.3356029566 3.9096501863 1.6986724928
| 34> H 4.4075827303 2.499750043 1.7510789345
| 35> H -0.192962526 -2.7817622542 -1.1530742177
| 36> H -0.3050358735 -1.0111254279 -1.4806576117
| 37> H -5.0576199385 -0.1010854911 2.4131736893
| 38> H -4.1765693041 -1.5305046109 1.7937575614
| 39> H -3.6433662119 -1.1057098702 4.2004738986
| 40> H -2.2091431445 -0.9379458418 3.1755822025
| 41> H -3.0326565444 0.5038908776 3.7733532174
| 42> H -4.2303183964 0.3567920707 -1.2950259382
| 43> H -3.5852839244 1.7448923708 -2.2157242619
| 44> H -1.9281686981 0.1764832839 -3.3031382521
| 45> H -2.7585137377 -1.1903858521 -2.5350415318
| 46> H -3.6118524397 -0.1847057633 -3.7120473402
| 47> *
| 48>
| 49>                          ****END OF INPUT****

CARTESIAN COORDINATES (ANGSTROEM)
---------------------------------
  C      4.789912   -1.445535    0.086763
  C      4.002773   -1.741931   -1.170903
  O      3.170042   -0.633413   -1.586709
  P      2.047282    0.081496   -0.737813
  S      0.886900    1.103945   -1.936637
  O      2.890120    0.923055    0.307838
  C      2.445947    2.113087    0.977473
  C      3.648058    3.014945    1.170544
  S      1.138162   -1.494213    0.373085
  C     -0.294225   -1.792284   -0.715157
  S     -1.877785   -1.813151    0.155997
  P     -2.113500    0.272327    0.525455
  S     -0.699420    1.180632    1.528028
  O     -3.577948    0.329931    1.138179
  C     -4.073126   -0.517722    2.192827
  C     -3.182682   -0.512723    3.417088
  O     -2.306669    1.009557   -0.850988
  C     -3.357642    0.755795   -1.815232
  C     -2.879716   -0.177303   -2.910902
  H      5.374121   -0.537777   -0.037953
  H      4.113334   -1.315075    0.929668
  H      5.455724   -2.277800    0.293231
  H      3.362081   -2.615910   -1.027618
  H      4.655697   -1.895614   -2.031226
  H      1.672434    2.597872    0.372271
  H      2.001291    1.821118    1.932413
  H      4.064758    3.293179    0.206128
  H      3.335603    3.909650    1.698672
  H      4.407583    2.499750    1.751079
  H     -0.192963   -2.781762   -1.153074
  H     -0.305036   -1.011125   -1.480658
  H     -5.057620   -0.101085    2.413174
  H     -4.176569   -1.530505    1.793758
  H     -3.643366   -1.105710    4.200474
  H     -2.209143   -0.937946    3.175582
  H     -3.032657    0.503891    3.773353
  H     -4.230318    0.356792   -1.295026
  H     -3.585284    1.744892   -2.215724
  H     -1.928169    0.176483   -3.303138
  H     -2.758514   -1.190386   -2.535042
  H     -3.611852   -0.184706   -3.712047

 Total Charge           Charge          ....    0
 Multiplicity           Mult            ....    1
 Number of Electrons    NEL             ....  202
 Basis Dimension        Dim             ....  334

ORBITAL ENERGIES
----------------

  NO   OCC          E(Eh)            E(eV)
   0   2.0000     -88.045438     -2395.8382
   1   2.0000     -88.037020     -2395.6091
   2   2.0000     -87.976378     -2393.9589
   3   2.0000     -87.973416     -2393.8783
   4   2.0000     -76.422430     -2079.5601
   5   2.0000     -76.419349     -2079.4762
   6   2.0000     -18.791381      -511.3395
   7   2.0000     -18.787078      -511.2224
   8   2.0000     -18.784544      -511.1534
   9   2.0000     -18.781038      -511.0580
  10   2.0000      -9.959428      -271.0098
  11   2.0000      -9.955969      -270.9157
  12   2.0000      -9.951720      -270.8001
  13   2.0000      -9.951593      -270.7966
  14   2.0000      -9.940917      -270.5061
  15   2.0000      -9.885022      -268.9851
  16   2.0000      -9.882372      -268.9130
  17   2.0000      -9.881980      -268.9023
  18   2.0000      -9.879378      -268.8316
  19   2.0000      -7.690305      -209.2638
  20   2.0000      -7.681747      -209.0310
  21   2.0000      -7.621614      -207.3947
  22   2.0000      -7.618526      -207.3106
  23   2.0000      -6.419495      -174.6833
  24   2.0000      -6.416806      -174.6102
  25   2.0000      -5.717882      -155.5915
  26   2.0000      -5.714790      -155.5073
  27   2.0000      -5.709575      -155.3654
  28   2.0000      -5.707635      -155.3126
  29   2.0000      -5.706407      -155.2792
  30   2.0000      -5.698666      -155.0686
  31   2.0000      -5.650618      -153.7611
  32   2.0000      -5.647663      -153.6807
  33   2.0000      -5.642483      -153.5398
  34   2.0000      -5.641348      -153.5089
  35   2.0000      -5.639028      -153.4457
  36   2.0000      -5.638544      -153.4326
  37   2.0000      -4.642487      -126.3285
  38   2.0000      -4.641627      -126.3051
  39   2.0000      -4.639497      -126.2471
  40   2.0000      -4.639306      -126.2419
  41   2.0000      -4.638568      -126.2218
  42   2.0000      -4.637186      -126.1843
  43   2.0000      -0.984984       -26.8028
  44   2.0000      -0.979329       -26.6489
  45   2.0000      -0.941155       -25.6101
  46   2.0000      -0.937653       -25.5148
  47   2.0000      -0.759912       -20.6782
  48   2.0000      -0.718110       -19.5408
  49   2.0000      -0.710073       -19.3221
  50   2.0000      -0.688674       -18.7398
  51   2.0000      -0.686934       -18.6924
  52   2.0000      -0.673942       -18.3389
  53   2.0000      -0.646217       -17.5845
  54   2.0000      -0.630910       -17.1679
  55   2.0000      -0.591618       -16.0987
  56   2.0000      -0.584478       -15.9044
  57   2.0000      -0.574250       -15.6261
  58   2.0000      -0.568114       -15.4592
  59   2.0000      -0.560123       -15.2417
  60   2.0000      -0.502623       -13.6771
  61   2.0000      -0.495123       -13.4730
  62   2.0000      -0.471883       -12.8406
  63   2.0000      -0.469363       -12.7720
  64   2.0000      -0.453012       -12.3271
  65   2.0000      -0.447106       -12.1664
  66   2.0000      -0.438324       -11.9274
  67   2.0000      -0.433463       -11.7951
  68   2.0000      -0.426956       -11.6181
  69   2.0000      -0.418028       -11.3751
  70   2.0000      -0.409224       -11.1356
  71   2.0000      -0.400573       -10.9001
  72   2.0000      -0.395558       -10.7637
  73   2.0000      -0.383231       -10.4283
  74   2.0000      -0.377370       -10.2688
  75   2.0000      -0.361267        -9.8306
  76   2.0000      -0.353946        -9.6313
  77   2.0000      -0.351926        -9.5764
  78   2.0000      -0.351334        -9.5603
  79   2.0000      -0.346725        -9.4349
  80   2.0000      -0.345690        -9.4067
  81   2.0000      -0.343288        -9.3413
  82   2.0000      -0.341356        -9.2888
  83   2.0000      -0.339106        -9.2276
  84   2.0000      -0.332805        -9.0561
  85   2.0000      -0.316869        -8.6224
  86   2.0000      -0.305655        -8.3173
  87   2.0000      -0.296249        -8.0614
  88   2.0000      -0.289977        -7.8907
  89   2.0000      -0.285907        -7.7799
  90   2.0000      -0.284020        -7.7286
  91   2.0000      -0.273213        -7.4345
  92   2.0000      -0.267527        -7.2798
  93   2.0000      -0.258886        -7.0446
  94   2.0000      -0.254899        -6.9362
  95   2.0000      -0.240624        -6.5477
  96   2.0000      -0.219626        -5.9763
  97   2.0000      -0.199994        -5.4421
  98   2.0000      -0.197145        -5.3646
  99   2.0000      -0.181197        -4.9306
 100   2.0000      -0.179854        -4.8941
 101   0.0000      -0.039638        -1.0786
 102   0.0000      -0.029532        -0.8036
 103   0.0000      -0.014034        -0.3819
 104   0.0000       0.002400         0.0653
 105   0.0000       0.027442         0.7467

MULLIKEN ATOMIC CHARGES
-----------------------
   0 C :   -0.307026
   1 C :   -0.001384
   2 O :   -0.361384
   3 P :    0.612662
   4 S :   -0.304243
   5 O :   -0.378861
   6 C :   -0.031393
   7 C :   -0.272673
   8 S :   -0.100887
   9 C :   -0.349275
  10 S :   -0.135102
  11 P :    0.612677
  12 S :   -0.316436
  13 O :   -0.381039
  14 C :   -0.014949
  15 C :   -0.309604
  16 O :   -0.344439
  17 C :   -0.004198
  18 C :   -0.311917
  19 H :    0.122210
  20 H :    0.121177
  21 H :    0.111332
  22 H :    0.102306
  23 H :    0.108085
  24 H :    0.124863
  25 H :    0.117962
  26 H :    0.115623
  27 H :    0.111927
  28 H :    0.109965
  29 H :    0.179908
  30 H :    0.204797
  31 H :    0.110295
  32 H :    0.114156
  33 H :    0.110202
  34 H :    0.129199
  35 H :    0.128238
  36 H :    0.100010
  37 H :    0.111113
  38 H :    0.140266
  39 H :    0.116701
  40 H :    0.109134
Sum of atomic charges:    0.0000000

LOEWDIN ATOMIC CHARGES
----------------------
   0 C :   -0.365617
   1 C :   -0.117118
   2 O :   -0.242661
   3 P :    0.571601
   4 S :   -0.298060
   5 O :   -0.237796
   6 C :   -0.121873
   7 C :   -0.351888
   8 S :    0.069111
   9 C :   -0.480299
  10 S :    0.059995
  11 P :    0.565989
  12 S :   -0.302975
  13 O :   -0.246122
  14 C :   -0.114971
  15 C :   -0.370481
  16 O :   -0.225342
  17 C :   -0.109851
  18 C :   -0.367481
  19 H :    0.128685
  20 H :    0.119344
  21 H :    0.130085
  22 H :    0.104448
  23 H :    0.121152
  24 H :    0.111605
  25 H :    0.110295
  26 H :    0.126910
  27 H :    0.131048
  28 H :    0.123332
  29 H :    0.135351
  30 H :    0.122044
  31 H :    0.121843
  32 H :    0.107283
  33 H :    0.129523
  34 H :    0.122686
  35 H :    0.131085
  36 H :    0.108111
  37 H :    0.123231
  38 H :    0.132084
  39 H :    0.116436
  40 H :    0.129256

  Mayer bond orders larger than 0.100000
B(  0-C ,  1-C ) :   1.1703 B(  0-C , 19-H ) :   0.9444 B(  0-C , 20-H ) :   0.9379
B(  0-C , 21-H ) :   0.9361 B(  1-C ,  2-O ) :   0.9106 B(  1-C , 22-H ) :   0.9166
B(  1-C , 23-H ) :   0.9337 B(  2-O ,  3-P ) :   1.1304 B(  3-P ,  4-S ) :   1.6270
B(  3-P ,  5-O ) :   1.1116 B(  3-P ,  8-S ) :   0.9361 B(  4-S ,  8-S ) :   0.1133
B(  4-S , 30-H ) :   0.1124 B(  5-O ,  6-C ) :   0.8948 B(  6-C ,  7-C ) :   1.1512
B(  6-C , 24-H ) :   0.9093 B(  6-C , 25-H ) :   0.9270 B(  7-C , 26-H ) :   0.9496
B(  7-C , 27-H ) :   0.9423 B(  7-C , 28-H ) :   0.9504 B(  8-S ,  9-C ) :   1.0035
B(  9-C , 10-S ) :   0.9955 B(  9-C , 29-H ) :   0.9117 B(  9-C , 30-H ) :   0.8400
B( 10-S , 11-P ) :   0.9327 B( 10-S , 12-S ) :   0.1145 B( 11-P , 12-S ) :   1.6645
B( 11-P , 13-O ) :   1.0829 B( 11-P , 16-O ) :   1.1432 B( 13-O , 14-C ) :   0.9134
B( 14-C , 15-C ) :   1.1671 B( 14-C , 31-H ) :   0.9334 B( 14-C , 32-H ) :   0.9259
B( 15-C , 33-H ) :   0.9342 B( 15-C , 34-H ) :   0.9314 B( 15-C , 35-H ) :   0.9420
B( 16-O , 17-C ) :   0.8996 B( 17-C , 18-C ) :   1.1708 B( 17-C , 36-H ) :   0.9197
B( 17-C , 37-H ) :   0.9349 B( 18-C , 38-H ) :   0.9340 B( 18-C , 39-H ) :   0.9336
B( 18-C , 40-H ) :   0.9383

Dispersion correction           -0.066617567
FINAL SINGLE POINT ENERGY     -2929.506885840128

DIPOLE MOMENT
-------------

Method             : SCF
Type of density    : Electron Density
Multiplicity       :   1
Irrep              :   0
Energy             : -2929.6252604711357890 Eh
Relativity type    :
Basis              : AO
                                X                 Y                 Z
Electronic contribution:     -3.982673358      -0.284420098      -3.453335134
Nuclear contribution   :      3.559431739      -0.808210929       3.688114619
                        -----------------------------------------
Total Dipole Moment    :     -0.423241619      -1.092631027       0.234779485
                        -----------------------------------------
Magnitude (a.u.)       :      1.195030307
Magnitude (Debye)      :      3.037525645

Rotational constants in cm-1:             0.012000             0.005159             0.004917
Rotational constants in MHz :           359.752520           154.648847           147.393702

                             ****ORCA TERMINATED NORMALLY****
TOTAL RUN TIME: 0 days 0 hours 0 minutes 20 seconds 944 msec
