                         Program Version 6.0.0  -   RELEASE  -
|  1> ! pbe def2-sv(p) def2/J RI DEFGRID1 loosescf d4 GCP(DFT/SV(P)) printgap
|  2> %output
|  3>     printlevel normal
|  4> end
|  5> * xyz 0 1
|  6> C 2.0447383458 -1.2912564939 -2.754376242
|  7> C 2.6748811574 -0.0290596734 -2.2007481387
|  8> O 3.2267994641 -0.2705441207 -0.8928833775
|  9> P 2.530497731 0.1034055989 0.4811116391
| 10> S 2.0774855961 1.9887667036 0.7756385574
| 11> O 3.6358160579 -0.3382047326 1.5170807378
| 12> C 4.5506022507 -1.4519178936 1.3603914684
| 13> C 3.8407075818 -2.7856757472 1.2639705789
| 14> S 0.904433752 -1.250350938 0.7170677026
| 15> C -0.190278676 -0.2098214674 1.7368869031
| 16> S -1.9272322196 -0.5641778997 1.4238606358
| 17> P -2.2099982194 0.5752757616 -0.3663960236
| 18> S -0.6551641526 0.9629062901 -1.4852580201
| 19> O -2.8419746769 1.9445237521 0.0965234798
| 20> C -4.0459982268 2.0452360257 0.8951001862
| 21> C -5.2512623826 2.309099316 0.0155057668
| 22> O -3.4430644157 -0.1590700506 -1.044512849
| 23> C -3.5185921477 -1.5748022954 -1.3107129726
| 24> C -2.2549798281 -2.1295969705 -1.9328970326
| 25> H 1.7103954017 -1.0988870044 -3.7683033025
| 26> H 2.7680267783 -2.1015966768 -2.7574912665
| 27> H 1.1856828908 -1.5777148162 -2.1530566921
| 28> H 1.9457650216 0.7844310355 -2.1470572905
| 29> H 3.5271991449 0.2886069635 -2.8045190458
| 30> H 5.159833303 -1.2673694579 0.4739727427
| 31> H 5.1696216141 -1.3887019088 2.2567299683
| 32> H 3.2326748382 -2.8273512832 0.3621918818
| 33> H 4.5830854065 -3.5768869075 1.2271302532
| 34> H 3.1965428008 -2.9389041021 2.125798842
| 35> H 0.0309521795 0.8381207451 1.5146760218
| 36> H -0.0181288823 -0.4355920236 2.7863431597
| 37> H -4.1675272384 1.1237335697 1.4719461045
| 38> H -3.8565439369 2.8812952623 1.5710005431
| 39> H -5.4153801477 1.474219676 -0.6602544465
| 40> H -6.126632694 2.4422522358 0.6434405325
| 41> H -5.09107673 3.208300942 -0.5732050577
| 42> H -3.7386284012 -2.0805471593 -0.3668114688
| 43> H -4.368960536 -1.6640643807 -1.9889186435
| 44> H -1.9941496419 -1.5682725967 -2.8272604114
| 45> H -1.4264359075 -2.0618392852 -1.2277354657
| 46> H -2.4089274022 -3.1718444187 -2.1929548544
| 47> *
| 48>
| 49>                          ****END OF INPUT****

CARTESIAN COORDINATES (ANGSTROEM)
---------------------------------
  C      2.044738   -1.291256   -2.754376
  C      2.674881   -0.029060   -2.200748
  O      3.226799   -0.270544   -0.892883
  P      2.530498    0.103406    0.481112
  S      2.077486    1.988767    0.775639
  O      3.635816   -0.338205    1.517081
  C      4.550602   -1.451918    1.360391
  C      3.840708   -2.785676    1.263971
  S      0.904434   -1.250351    0.717068
  C     -0.190279   -0.209821    1.736887
  S     -1.927232   -0.564178    1.423861
  P     -2.209998    0.575276   -0.366396
  S     -0.655164    0.962906   -1.485258
  O     -2.841975    1.944524    0.096523
  C     -4.045998    2.045236    0.895100
  C     -5.251262    2.309099    0.015506
  O     -3.443064   -0.159070   -1.044513
  C     -3.518592   -1.574802   -1.310713
  C     -2.254980   -2.129597   -1.932897
  H      1.710395   -1.098887   -3.768303
  H      2.768027   -2.101597   -2.757491
  H      1.185683   -1.577715   -2.153057
  H      1.945765    0.784431   -2.147057
  H      3.527199    0.288607   -2.804519
  H      5.159833   -1.267369    0.473973
  H      5.169622   -1.388702    2.256730
  H      3.232675   -2.827351    0.362192
  H      4.583085   -3.576887    1.227130
  H      3.196543   -2.938904    2.125799
  H      0.030952    0.838121    1.514676
  H     -0.018129   -0.435592    2.786343
  H     -4.167527    1.123734    1.471946
  H     -3.856544    2.881295    1.571001
  H     -5.415380    1.474220   -0.660254
  H     -6.126633    2.442252    0.643441
  H     -5.091077    3.208301   -0.573205
  H     -3.738628   -2.080547   -0.366811
  H     -4.368961   -1.664064   -1.988919
  H     -1.994150   -1.568273   -2.827260
  H     -1.426436   -2.061839   -1.227735
  H     -2.408927   -3.171844   -2.192955

 Total Charge           Charge          ....    0
 Multiplicity           Mult            ....    1
 Number of Electrons    NEL             ....  202
 Basis Dimension        Dim             ....  334

ORBITAL ENERGIES
----------------

  NO   OCC          E(Eh)            E(eV)
   0   2.0000     -88.047658     -2395.8986
   1   2.0000     -88.036199     -2395.5868
   2   2.0000     -87.979194     -2394.0356
   3   2.0000     -87.973956     -2393.8930
   4   2.0000     -76.425034     -2079.6309
   5   2.0000     -76.419775     -2079.4878
   6   2.0000     -18.795145      -511.4419
   7   2.0000     -18.791527      -511.3434
   8   2.0000     -18.787705      -511.2394
   9   2.0000     -18.781337      -511.0662
  10   2.0000      -9.960299      -271.0335
  11   2.0000      -9.954669      -270.8803
  12   2.0000      -9.952638      -270.8250
  13   2.0000      -9.951049      -270.7818
  14   2.0000      -9.948833      -270.7215
  15   2.0000      -9.887271      -269.0463
  16   2.0000      -9.885328      -268.9935
  17   2.0000      -9.884334      -268.9664
  18   2.0000      -9.880255      -268.8554
  19   2.0000      -7.692310      -209.3184
  20   2.0000      -7.680638      -209.0008
  21   2.0000      -7.624241      -207.4661
  22   2.0000      -7.619143      -207.3274
  23   2.0000      -6.422114      -174.7546
  24   2.0000      -6.417061      -174.6171
  25   2.0000      -5.720008      -155.6493
  26   2.0000      -5.716670      -155.5585
  27   2.0000      -5.709691      -155.3686
  28   2.0000      -5.708521      -155.3368
  29   2.0000      -5.705287      -155.2487
  30   2.0000      -5.697573      -155.0388
  31   2.0000      -5.653389      -153.8365
  32   2.0000      -5.648179      -153.6948
  33   2.0000      -5.644704      -153.6002
  34   2.0000      -5.644289      -153.5889
  35   2.0000      -5.639826      -153.4675
  36   2.0000      -5.639078      -153.4471
  37   2.0000      -4.644954      -126.3956
  38   2.0000      -4.644162      -126.3741
  39   2.0000      -4.642134      -126.3189
  40   2.0000      -4.640106      -126.2637
  41   2.0000      -4.638685      -126.2250
  42   2.0000      -4.637240      -126.1857
  43   2.0000      -0.987995       -26.8847
  44   2.0000      -0.983385       -26.7593
  45   2.0000      -0.944560       -25.7028
  46   2.0000      -0.937799       -25.5188
  47   2.0000      -0.759907       -20.6781
  48   2.0000      -0.719126       -19.5684
  49   2.0000      -0.710509       -19.3339
  50   2.0000      -0.691774       -18.8241
  51   2.0000      -0.688164       -18.7259
  52   2.0000      -0.675478       -18.3807
  53   2.0000      -0.649083       -17.6625
  54   2.0000      -0.629159       -17.1203
  55   2.0000      -0.593068       -16.1382
  56   2.0000      -0.587476       -15.9860
  57   2.0000      -0.574786       -15.6407
  58   2.0000      -0.573820       -15.6144
  59   2.0000      -0.561417       -15.2769
  60   2.0000      -0.503150       -13.6914
  61   2.0000      -0.494978       -13.4690
  62   2.0000      -0.471999       -12.8437
  63   2.0000      -0.470197       -12.7947
  64   2.0000      -0.453180       -12.3317
  65   2.0000      -0.448833       -12.2134
  66   2.0000      -0.439000       -11.9458
  67   2.0000      -0.438089       -11.9210
  68   2.0000      -0.430551       -11.7159
  69   2.0000      -0.422011       -11.4835
  70   2.0000      -0.413591       -11.2544
  71   2.0000      -0.399067       -10.8592
  72   2.0000      -0.390879       -10.6364
  73   2.0000      -0.385655       -10.4942
  74   2.0000      -0.383864       -10.4455
  75   2.0000      -0.366345        -9.9688
  76   2.0000      -0.358157        -9.7460
  77   2.0000      -0.355182        -9.6650
  78   2.0000      -0.354179        -9.6377
  79   2.0000      -0.348991        -9.4965
  80   2.0000      -0.346868        -9.4388
  81   2.0000      -0.345102        -9.3907
  82   2.0000      -0.339421        -9.2361
  83   2.0000      -0.338921        -9.2225
  84   2.0000      -0.330539        -8.9944
  85   2.0000      -0.319840        -8.7033
  86   2.0000      -0.313188        -8.5223
  87   2.0000      -0.299034        -8.1371
  88   2.0000      -0.291423        -7.9300
  89   2.0000      -0.288006        -7.8370
  90   2.0000      -0.287114        -7.8128
  91   2.0000      -0.277037        -7.5386
  92   2.0000      -0.271579        -7.3900
  93   2.0000      -0.261932        -7.1275
  94   2.0000      -0.253766        -6.9053
  95   2.0000      -0.238530        -6.4907
  96   2.0000      -0.219103        -5.9621
  97   2.0000      -0.203898        -5.5483
  98   2.0000      -0.194489        -5.2923
  99   2.0000      -0.187423        -5.1000
 100   2.0000      -0.179322        -4.8796
 101   0.0000      -0.042081        -1.1451
 102   0.0000      -0.030224        -0.8224
 103   0.0000      -0.017277        -0.4701
 104   0.0000       0.004760         0.1295
 105   0.0000       0.018416         0.5011

MULLIKEN ATOMIC CHARGES
-----------------------
   0 C :   -0.315307
   1 C :   -0.012080
   2 O :   -0.385564
   3 P :    0.618450
   4 S :   -0.298632
   5 O :   -0.365199
   6 C :    0.007793
   7 C :   -0.321970
   8 S :   -0.126464
   9 C :   -0.330022
  10 S :   -0.128606
  11 P :    0.593051
  12 S :   -0.302647
  13 O :   -0.349512
  14 C :   -0.011958
  15 C :   -0.288235
  16 O :   -0.380933
  17 C :    0.003344
  18 C :   -0.344115
  19 H :    0.111751
  20 H :    0.108561
  21 H :    0.146009
  22 H :    0.132595
  23 H :    0.105306
  24 H :    0.108760
  25 H :    0.108509
  26 H :    0.125166
  27 H :    0.112386
  28 H :    0.122855
  29 H :    0.206969
  30 H :    0.180710
  31 H :    0.096555
  32 H :    0.112357
  33 H :    0.120261
  34 H :    0.108166
  35 H :    0.122039
  36 H :    0.110016
  37 H :    0.108855
  38 H :    0.129591
  39 H :    0.149919
  40 H :    0.111269
Sum of atomic charges:   -0.0000000

LOEWDIN ATOMIC CHARGES
----------------------
   0 C :   -0.365288
   1 C :   -0.112962
   2 O :   -0.242101
   3 P :    0.566866
   4 S :   -0.296449
   5 O :   -0.244410
   6 C :   -0.108819
   7 C :   -0.369532
   8 S :    0.065932
   9 C :   -0.480029
  10 S :    0.064429
  11 P :    0.565539
  12 S :   -0.287027
  13 O :   -0.234228
  14 C :   -0.115645
  15 C :   -0.359181
  16 O :   -0.246053
  17 C :   -0.113225
  18 C :   -0.376366
  19 H :    0.131833
  20 H :    0.121029
  21 H :    0.123002
  22 H :    0.110525
  23 H :    0.118851
  24 H :    0.114082
  25 H :    0.121575
  26 H :    0.116354
  27 H :    0.130500
  28 H :    0.126340
  29 H :    0.124037
  30 H :    0.134489
  31 H :    0.100947
  32 H :    0.122391
  33 H :    0.125682
  34 H :    0.128477
  35 H :    0.129936
  36 H :    0.109204
  37 H :    0.120970
  38 H :    0.129523
  39 H :    0.118561
  40 H :    0.130240

  Mayer bond orders larger than 0.100000
B(  0-C ,  1-C ) :   1.1713 B(  0-C , 19-H ) :   0.9398 B(  0-C , 20-H ) :   0.9445
B(  0-C , 21-H ) :   0.9307 B(  1-C ,  2-O ) :   0.8964 B(  1-C , 22-H ) :   0.9042
B(  1-C , 23-H ) :   0.9342 B(  2-O ,  3-P ) :   1.0900 B(  3-P ,  4-S ) :   1.6626
B(  3-P ,  5-O ) :   1.1247 B(  3-P ,  8-S ) :   0.9375 B(  4-S ,  8-S ) :   0.1197
B(  4-S , 29-H ) :   0.1188 B(  5-O ,  6-C ) :   0.9072 B(  6-C ,  7-C ) :   1.1687
B(  6-C , 24-H ) :   0.9278 B(  6-C , 25-H ) :   0.9349 B(  7-C , 26-H ) :   0.9372
B(  7-C , 27-H ) :   0.9358 B(  7-C , 28-H ) :   0.9424 B(  8-S ,  9-C ) :   0.9880
B(  9-C , 10-S ) :   1.0020 B(  9-C , 29-H ) :   0.8430 B(  9-C , 30-H ) :   0.9100
B( 10-S , 11-P ) :   0.9294 B( 10-S , 12-S ) :   0.1162 B( 11-P , 12-S ) :   1.6771
B( 11-P , 13-O ) :   1.1369 B( 11-P , 16-O ) :   1.0814 B( 13-O , 14-C ) :   0.8969
B( 14-C , 15-C ) :   1.1637 B( 14-C , 31-H ) :   0.9140 B( 14-C , 32-H ) :   0.9359
B( 15-C , 33-H ) :   0.9428 B( 15-C , 34-H ) :   0.9402 B( 15-C , 35-H ) :   0.9468
B( 16-O , 17-C ) :   0.9077 B( 17-C , 18-C ) :   1.1686 B( 17-C , 36-H ) :   0.9281
B( 17-C , 37-H ) :   0.9328 B( 18-C , 38-H ) :   0.9394 B( 18-C , 39-H ) :   0.9212
B( 18-C , 40-H ) :   0.9324

Dispersion correction           -0.065743661
FINAL SINGLE POINT ENERGY     -2929.508229537681

DIPOLE MOMENT
-------------

Method             : SCF
Type of density    : Electron Density
Multiplicity       :   1
Irrep              :   0
Energy             : -2929.6276338193033553 Eh
Relativity type    :
Basis              : AO
                                X                 Y                 Z
Electronic contribution:      5.231031662      12.722396701       8.596404639
Nuclear contribution   :     -6.014677707     -14.430481742      -8.624487953
                        -----------------------------------------
Total Dipole Moment    :     -0.783646046      -1.708085042      -0.028083314
                        -----------------------------------------
Magnitude (a.u.)       :      1.879479797
Magnitude (Debye)      :      4.777257989

Rotational constants in cm-1:             0.013571             0.004684             0.004482
Rotational constants in MHz :           406.845403           140.408221           134.372875

                             ****ORCA TERMINATED NORMALLY****
TOTAL RUN TIME: 0 days 0 hours 0 minutes 21 seconds 110 msec
