                         Program Version 6.0.1  -  RELEASE   -
|  1> ! r2scan-3c def2/J RI DEFGRID2 scfconv6 printgap
|  2> %output
|  3>     printlevel normal
|  4> end
|  5> * xyz 0 1
|  6> C 2.5244183475 -3.0674663235 0.3263784376
|  7> C 3.2703961737 -2.7178023119 -0.9518123597
|  8> O 2.4344136261 -1.9216538867 -1.8148823948
|  9> C 2.3628047635 -0.6283168595 -1.5977677774
| 10> O 3.0169141297 -0.025371319 -0.7725424659
| 11> C 1.3124347602 0.0328069617 -2.4702478218
| 12> C 0.201071323 0.5342298243 -1.5421994181
| 13> H -0.5560660988 1.0737369801 -2.1177140543
| 14> C 0.8037453281 1.4986234101 -0.5338693659
| 15> O 1.2494797829 2.5696969713 -0.8748911555
| 16> O 0.8045283789 1.0461448535 0.7031578468
| 17> C 1.4626247676 1.8748500021 1.6844071446
| 18> C 1.4279948697 1.1728235639 3.0255712847
| 19> S -0.5933537198 -0.8937262088 -0.7352039206
| 20> P -1.9183405427 0.1701708309 0.539989421
| 21> S -2.2291586069 2.0563419833 0.1055607988
| 22> O -3.2350709497 -0.7396341798 0.4918285789
| 23> C -4.0383181042 -0.8238403826 -0.6905319613
| 24> O -1.4704391488 -0.0732479294 2.0325517662
| 25> C -1.2619725502 -1.4059370372 2.5466309305
| 26> H 1.5907491877 -3.5680439837 0.0848385825
| 27> H 3.139301803 -3.7188686044 0.938107005
| 28> H 2.3039134712 -2.1599959694 0.8848067291
| 29> H 3.4999400333 -3.6067396174 -1.5383975556
| 30> H 4.1828976909 -2.1567414104 -0.7309749641
| 31> H 0.9182619295 -0.6860396339 -3.1861795285
| 32> H 1.7503001882 0.8934653198 -2.9779993855
| 33> H 2.4857238041 2.0371882568 1.3305904929
| 34> H 0.9435345561 2.8384862368 1.7114003091
| 35> H 0.4000435129 1.0504717187 3.3532260004
| 36> H 1.9013826261 0.1984629193 2.9474150938
| 37> H 1.9661451272 1.7753550327 3.7496128045
| 38> H -3.5123168028 -1.3956794225 -1.4548642378
| 39> H -4.2666153593 0.1765017155 -1.0615271134
| 40> H -4.9497214494 -1.3334455011 -0.3887857998
| 41> H -2.203271286 -1.9511916652 2.5515529149
| 42> H -0.888209189 -1.2692310995 3.5578352011
| 43> H -0.5292716417 -1.9287664292 1.9320250756
| 44> *
| 45>
| 46>                          ****END OF INPUT****

CARTESIAN COORDINATES (ANGSTROEM)
---------------------------------
  C      2.524418   -3.067466    0.326378
  C      3.270396   -2.717802   -0.951812
  O      2.434414   -1.921654   -1.814882
  C      2.362805   -0.628317   -1.597768
  O      3.016914   -0.025371   -0.772542
  C      1.312435    0.032807   -2.470248
  C      0.201071    0.534230   -1.542199
  H     -0.556066    1.073737   -2.117714
  C      0.803745    1.498623   -0.533869
  O      1.249480    2.569697   -0.874891
  O      0.804528    1.046145    0.703158
  C      1.462625    1.874850    1.684407
  C      1.427995    1.172824    3.025571
  S     -0.593354   -0.893726   -0.735204
  P     -1.918341    0.170171    0.539989
  S     -2.229159    2.056342    0.105561
  O     -3.235071   -0.739634    0.491829
  C     -4.038318   -0.823840   -0.690532
  O     -1.470439   -0.073248    2.032552
  C     -1.261973   -1.405937    2.546631
  H      1.590749   -3.568044    0.084839
  H      3.139302   -3.718869    0.938107
  H      2.303913   -2.159996    0.884807
  H      3.499940   -3.606740   -1.538398
  H      4.182898   -2.156741   -0.730975
  H      0.918262   -0.686040   -3.186180
  H      1.750300    0.893465   -2.977999
  H      2.485724    2.037188    1.330590
  H      0.943535    2.838486    1.711400
  H      0.400044    1.050472    3.353226
  H      1.901383    0.198463    2.947415
  H      1.966145    1.775355    3.749613
  H     -3.512317   -1.395679   -1.454864
  H     -4.266615    0.176502   -1.061527
  H     -4.949721   -1.333446   -0.388786
  H     -2.203271   -1.951192    2.551553
  H     -0.888209   -1.269231    3.557835
  H     -0.529272   -1.928766    1.932025

 Total Charge           Charge          ....    0
 Multiplicity           Mult            ....    1
 Number of Electrons    NEL             ....  174
 Basis Dimension        Dim             ....  510

ORBITAL ENERGIES
----------------

  NO   OCC          E(Eh)            E(eV)
   0   2.0000     -88.576619     -2410.2923
   1   2.0000     -88.520174     -2408.7564
   2   2.0000     -76.916192     -2092.9960
   3   2.0000     -19.010476      -517.3013
   4   2.0000     -18.998261      -516.9690
   5   2.0000     -18.993944      -516.8515
   6   2.0000     -18.992428      -516.8102
   7   2.0000     -18.939417      -515.3678
   8   2.0000     -18.923963      -514.9472
   9   2.0000     -10.165452      -276.6160
  10   2.0000     -10.153700      -276.2962
  11   2.0000     -10.102251      -274.8962
  12   2.0000     -10.101156      -274.8664
  13   2.0000     -10.098538      -274.7952
  14   2.0000     -10.094255      -274.6786
  15   2.0000     -10.082407      -274.3562
  16   2.0000     -10.065637      -273.8999
  17   2.0000     -10.036341      -273.1027
  18   2.0000     -10.024758      -272.7875
  19   2.0000      -7.871149      -214.1849
  20   2.0000      -7.814685      -212.6484
  21   2.0000      -6.594504      -179.4456
  22   2.0000      -5.817897      -158.3130
  23   2.0000      -5.814987      -158.2338
  24   2.0000      -5.808362      -158.0536
  25   2.0000      -5.762608      -156.8085
  26   2.0000      -5.754892      -156.5986
  27   2.0000      -5.754540      -156.5890
  28   2.0000      -4.740231      -128.9882
  29   2.0000      -4.739570      -128.9703
  30   2.0000      -4.737942      -128.9259
  31   2.0000      -1.087478       -29.5918
  32   2.0000      -1.071294       -29.1514
  33   2.0000      -1.054748       -28.7011
  34   2.0000      -1.012191       -27.5431
  35   2.0000      -0.989225       -26.9182
  36   2.0000      -0.974047       -26.5052
  37   2.0000      -0.814780       -22.1713
  38   2.0000      -0.759408       -20.6645
  39   2.0000      -0.737560       -20.0700
  40   2.0000      -0.736756       -20.0481
  41   2.0000      -0.700032       -19.0488
  42   2.0000      -0.680099       -18.5064
  43   2.0000      -0.659821       -17.9546
  44   2.0000      -0.650415       -17.6987
  45   2.0000      -0.628977       -17.1153
  46   2.0000      -0.593151       -16.1405
  47   2.0000      -0.544363       -14.8129
  48   2.0000      -0.535890       -14.5823
  49   2.0000      -0.526429       -14.3249
  50   2.0000      -0.499291       -13.5864
  51   2.0000      -0.495430       -13.4813
  52   2.0000      -0.489545       -13.3212
  53   2.0000      -0.470664       -12.8074
  54   2.0000      -0.459160       -12.4944
  55   2.0000      -0.455669       -12.3994
  56   2.0000      -0.448356       -12.2004
  57   2.0000      -0.439034       -11.9467
  58   2.0000      -0.436929       -11.8894
  59   2.0000      -0.429084       -11.6760
  60   2.0000      -0.426322       -11.6008
  61   2.0000      -0.422330       -11.4922
  62   2.0000      -0.408169       -11.1069
  63   2.0000      -0.404536       -11.0080
  64   2.0000      -0.393967       -10.7204
  65   2.0000      -0.380283       -10.3480
  66   2.0000      -0.370318       -10.0769
  67   2.0000      -0.369630       -10.0581
  68   2.0000      -0.363634        -9.8950
  69   2.0000      -0.354380        -9.6432
  70   2.0000      -0.352025        -9.5791
  71   2.0000      -0.346488        -9.4284
  72   2.0000      -0.339212        -9.2304
  73   2.0000      -0.329292        -8.9605
  74   2.0000      -0.322398        -8.7729
  75   2.0000      -0.319058        -8.6820
  76   2.0000      -0.314876        -8.5682
  77   2.0000      -0.313076        -8.5192
  78   2.0000      -0.290741        -7.9115
  79   2.0000      -0.284705        -7.7472
  80   2.0000      -0.279129        -7.5955
  81   2.0000      -0.264903        -7.2084
  82   2.0000      -0.252123        -6.8606
  83   2.0000      -0.246829        -6.7166
  84   2.0000      -0.224313        -6.1039
  85   2.0000      -0.218464        -5.9447
  86   2.0000      -0.216135        -5.8813
  87   0.0000      -0.042929        -1.1682
  88   0.0000      -0.031225        -0.8497
  89   0.0000      -0.010609        -0.2887
  90   0.0000       0.002668         0.0726
  91   0.0000       0.011763         0.3201

MULLIKEN ATOMIC CHARGES
-----------------------
   0 C :   -0.483737
   1 C :   -0.128114
   2 O :   -0.155030
   3 C :    0.331093
   4 O :   -0.361264
   5 C :   -0.420113
   6 C :    0.020929
   7 H :    0.236916
   8 C :    0.186627
   9 O :   -0.360386
  10 O :   -0.116383
  11 C :   -0.130301
  12 C :   -0.486921
  13 S :   -0.219383
  14 P :    0.770198
  15 S :   -0.420465
  16 O :   -0.347636
  17 C :   -0.298456
  18 O :   -0.308812
  19 C :   -0.294632
  20 H :    0.155859
  21 H :    0.149084
  22 H :    0.178358
  23 H :    0.151554
  24 H :    0.169932
  25 H :    0.182611
  26 H :    0.210186
  27 H :    0.172012
  28 H :    0.165662
  29 H :    0.166485
  30 H :    0.150918
  31 H :    0.146939
  32 H :    0.158491
  33 H :    0.175545
  34 H :    0.152311
  35 H :    0.170471
  36 H :    0.160365
  37 H :    0.169087
Sum of atomic charges:    0.0000000

LOEWDIN ATOMIC CHARGES
----------------------
   0 C :   -0.393745
   1 C :    0.032223
   2 O :   -0.583908
   3 C :    0.351869
   4 O :   -0.415961
   5 C :   -0.198009
   6 C :   -0.192317
   7 H :    0.204031
   8 C :    0.319716
   9 O :   -0.401428
  10 O :   -0.623686
  11 C :    0.041349
  12 C :   -0.387903
  13 S :    0.202349
  14 P :    0.400006
  15 S :   -0.054789
  16 O :   -0.685945
  17 C :   -0.060095
  18 O :   -0.653942
  19 C :   -0.054449
  20 H :    0.159124
  21 H :    0.158831
  22 H :    0.167353
  23 H :    0.179697
  24 H :    0.188536
  25 H :    0.185606
  26 H :    0.201131
  27 H :    0.189947
  28 H :    0.186587
  29 H :    0.167462
  30 H :    0.158177
  31 H :    0.159390
  32 H :    0.168923
  33 H :    0.176792
  34 H :    0.177352
  35 H :    0.175702
  36 H :    0.180517
  37 H :    0.173509

  Mayer bond orders larger than 0.100000
B(  0-C ,  1-C ) :   0.9277 B(  0-C , 20-H ) :   0.9689 B(  0-C , 21-H ) :   0.9630
B(  0-C , 22-H ) :   0.9699 B(  1-C ,  2-O ) :   0.8162 B(  1-C , 23-H ) :   0.9612
B(  1-C , 24-H ) :   0.9707 B(  2-O ,  3-C ) :   1.0725 B(  3-C ,  4-O ) :   1.8054
B(  3-C ,  5-C ) :   0.9238 B(  4-O ,  8-C ) :   0.1279 B(  5-C ,  6-C ) :   0.8562
B(  5-C , 25-H ) :   0.9839 B(  5-C , 26-H ) :   0.9596 B(  6-C ,  7-H ) :   0.9238
B(  6-C ,  8-C ) :   0.8810 B(  6-C , 13-S ) :   0.8800 B(  8-C ,  9-O ) :   1.8426
B(  8-C , 10-O ) :   1.1107 B( 10-O , 11-C ) :   0.8083 B( 11-C , 12-C ) :   0.9241
B( 11-C , 27-H ) :   0.9541 B( 11-C , 28-H ) :   0.9507 B( 12-C , 29-H ) :   0.9670
B( 12-C , 30-H ) :   0.9766 B( 12-C , 31-H ) :   0.9662 B( 13-S , 14-P ) :   0.9788
B( 14-P , 15-S ) :   1.7991 B( 14-P , 16-O ) :   1.0282 B( 14-P , 18-O ) :   1.1501
B( 16-O , 17-C ) :   0.8314 B( 17-C , 32-H ) :   0.9564 B( 17-C , 33-H ) :   0.9591
B( 17-C , 34-H ) :   0.9673 B( 18-O , 19-C ) :   0.7896 B( 19-C , 35-H ) :   0.9588
B( 19-C , 36-H ) :   0.9640 B( 19-C , 37-H ) :   0.9580

Dispersion correction           -0.018557664
FINAL SINGLE POINT ENERGY     -1981.453483559880

DIPOLE MOMENT
-------------

Method             : SCF
Type of density    : Electron Density
Multiplicity       :   1
Irrep              :   0
Energy             : -1981.4721716469121020 Eh
Relativity type    :
Basis              : AO
                                X                 Y                 Z
Electronic contribution:     -9.522838516      10.620640224      -8.257660811
Nuclear contribution   :      9.508389603     -13.055129687       8.524608107
                        -----------------------------------------
Total Dipole Moment    :     -0.014448912      -2.434489463       0.266947296
                        -----------------------------------------
Magnitude (a.u.)       :      2.449124043
Magnitude (Debye)      :      6.225178593

Rotational constants in cm-1:             0.013243             0.007829             0.007301
Rotational constants in MHz :           397.017925           234.701239           218.875434

                             ****ORCA TERMINATED NORMALLY****
TOTAL RUN TIME: 0 days 0 hours 1 minutes 42 seconds 40 msec
