                         Program Version 6.0.1  -  RELEASE   -
|  1> ! r2scan-3c def2/J RI DEFGRID2 scfconv6 printgap
|  2> %output
|  3>     printlevel normal
|  4> end
|  5> %cpcm
|  6>     smd true
|  7>     smdsolvent "water"
|  8> end
|  9> * xyz 0 1
| 10> C 2.5244183475 -3.0674663235 0.3263784376
| 11> C 3.2703961737 -2.7178023119 -0.9518123597
| 12> O 2.4344136261 -1.9216538867 -1.8148823948
| 13> C 2.3628047635 -0.6283168595 -1.5977677774
| 14> O 3.0169141297 -0.025371319 -0.7725424659
| 15> C 1.3124347602 0.0328069617 -2.4702478218
| 16> C 0.201071323 0.5342298243 -1.5421994181
| 17> H -0.5560660988 1.0737369801 -2.1177140543
| 18> C 0.8037453281 1.4986234101 -0.5338693659
| 19> O 1.2494797829 2.5696969713 -0.8748911555
| 20> O 0.8045283789 1.0461448535 0.7031578468
| 21> C 1.4626247676 1.8748500021 1.6844071446
| 22> C 1.4279948697 1.1728235639 3.0255712847
| 23> S -0.5933537198 -0.8937262088 -0.7352039206
| 24> P -1.9183405427 0.1701708309 0.539989421
| 25> S -2.2291586069 2.0563419833 0.1055607988
| 26> O -3.2350709497 -0.7396341798 0.4918285789
| 27> C -4.0383181042 -0.8238403826 -0.6905319613
| 28> O -1.4704391488 -0.0732479294 2.0325517662
| 29> C -1.2619725502 -1.4059370372 2.5466309305
| 30> H 1.5907491877 -3.5680439837 0.0848385825
| 31> H 3.139301803 -3.7188686044 0.938107005
| 32> H 2.3039134712 -2.1599959694 0.8848067291
| 33> H 3.4999400333 -3.6067396174 -1.5383975556
| 34> H 4.1828976909 -2.1567414104 -0.7309749641
| 35> H 0.9182619295 -0.6860396339 -3.1861795285
| 36> H 1.7503001882 0.8934653198 -2.9779993855
| 37> H 2.4857238041 2.0371882568 1.3305904929
| 38> H 0.9435345561 2.8384862368 1.7114003091
| 39> H 0.4000435129 1.0504717187 3.3532260004
| 40> H 1.9013826261 0.1984629193 2.9474150938
| 41> H 1.9661451272 1.7753550327 3.7496128045
| 42> H -3.5123168028 -1.3956794225 -1.4548642378
| 43> H -4.2666153593 0.1765017155 -1.0615271134
| 44> H -4.9497214494 -1.3334455011 -0.3887857998
| 45> H -2.203271286 -1.9511916652 2.5515529149
| 46> H -0.888209189 -1.2692310995 3.5578352011
| 47> H -0.5292716417 -1.9287664292 1.9320250756
| 48> *
| 49>
| 50>                          ****END OF INPUT****

CARTESIAN COORDINATES (ANGSTROEM)
---------------------------------
  C      2.524418   -3.067466    0.326378
  C      3.270396   -2.717802   -0.951812
  O      2.434414   -1.921654   -1.814882
  C      2.362805   -0.628317   -1.597768
  O      3.016914   -0.025371   -0.772542
  C      1.312435    0.032807   -2.470248
  C      0.201071    0.534230   -1.542199
  H     -0.556066    1.073737   -2.117714
  C      0.803745    1.498623   -0.533869
  O      1.249480    2.569697   -0.874891
  O      0.804528    1.046145    0.703158
  C      1.462625    1.874850    1.684407
  C      1.427995    1.172824    3.025571
  S     -0.593354   -0.893726   -0.735204
  P     -1.918341    0.170171    0.539989
  S     -2.229159    2.056342    0.105561
  O     -3.235071   -0.739634    0.491829
  C     -4.038318   -0.823840   -0.690532
  O     -1.470439   -0.073248    2.032552
  C     -1.261973   -1.405937    2.546631
  H      1.590749   -3.568044    0.084839
  H      3.139302   -3.718869    0.938107
  H      2.303913   -2.159996    0.884807
  H      3.499940   -3.606740   -1.538398
  H      4.182898   -2.156741   -0.730975
  H      0.918262   -0.686040   -3.186180
  H      1.750300    0.893465   -2.977999
  H      2.485724    2.037188    1.330590
  H      0.943535    2.838486    1.711400
  H      0.400044    1.050472    3.353226
  H      1.901383    0.198463    2.947415
  H      1.966145    1.775355    3.749613
  H     -3.512317   -1.395679   -1.454864
  H     -4.266615    0.176502   -1.061527
  H     -4.949721   -1.333446   -0.388786
  H     -2.203271   -1.951192    2.551553
  H     -0.888209   -1.269231    3.557835
  H     -0.529272   -1.928766    1.932025

 Total Charge           Charge          ....    0
 Multiplicity           Mult            ....    1
 Number of Electrons    NEL             ....  174
 Basis Dimension        Dim             ....  510

ORBITAL ENERGIES
----------------

  NO   OCC          E(Eh)            E(eV)
   0   2.0000     -88.580004     -2410.3844
   1   2.0000     -88.531921     -2409.0761
   2   2.0000     -76.922327     -2093.1629
   3   2.0000     -19.011754      -517.3361
   4   2.0000     -19.008754      -517.2545
   5   2.0000     -18.999537      -517.0037
   6   2.0000     -18.995206      -516.8858
   7   2.0000     -18.951295      -515.6909
   8   2.0000     -18.950230      -515.6620
   9   2.0000     -10.175047      -276.8771
  10   2.0000     -10.172871      -276.8179
  11   2.0000     -10.101976      -274.8887
  12   2.0000     -10.087122      -274.4845
  13   2.0000     -10.086980      -274.4807
  14   2.0000     -10.085986      -274.4536
  15   2.0000     -10.082058      -274.3467
  16   2.0000     -10.061753      -273.7942
  17   2.0000     -10.019905      -272.6555
  18   2.0000     -10.019066      -272.6326
  19   2.0000      -7.874457      -214.2749
  20   2.0000      -7.826856      -212.9796
  21   2.0000      -6.600728      -179.6149
  22   2.0000      -5.821285      -158.4052
  23   2.0000      -5.818354      -158.3255
  24   2.0000      -5.811535      -158.1399
  25   2.0000      -5.774624      -157.1355
  26   2.0000      -5.767078      -156.9302
  27   2.0000      -5.766768      -156.9217
  28   2.0000      -4.746383      -129.1556
  29   2.0000      -4.745743      -129.1382
  30   2.0000      -4.744332      -129.0998
  31   2.0000      -1.092374       -29.7250
  32   2.0000      -1.087971       -29.6052
  33   2.0000      -1.055858       -28.7314
  34   2.0000      -1.012374       -27.5481
  35   2.0000      -0.999279       -27.1918
  36   2.0000      -0.998193       -27.1622
  37   2.0000      -0.818109       -22.2619
  38   2.0000      -0.754030       -20.5182
  39   2.0000      -0.739993       -20.1362
  40   2.0000      -0.733212       -19.9517
  41   2.0000      -0.696272       -18.9465
  42   2.0000      -0.671650       -18.2765
  43   2.0000      -0.661228       -17.9929
  44   2.0000      -0.651959       -17.7407
  45   2.0000      -0.625537       -17.0217
  46   2.0000      -0.592899       -16.1336
  47   2.0000      -0.544043       -14.8042
  48   2.0000      -0.537077       -14.6146
  49   2.0000      -0.525295       -14.2940
  50   2.0000      -0.501418       -13.6443
  51   2.0000      -0.493435       -13.4271
  52   2.0000      -0.491648       -13.3784
  53   2.0000      -0.469816       -12.7844
  54   2.0000      -0.467461       -12.7203
  55   2.0000      -0.456527       -12.4227
  56   2.0000      -0.451963       -12.2986
  57   2.0000      -0.447569       -12.1790
  58   2.0000      -0.441488       -12.0135
  59   2.0000      -0.428695       -11.6654
  60   2.0000      -0.422215       -11.4891
  61   2.0000      -0.412131       -11.2147
  62   2.0000      -0.407258       -11.0821
  63   2.0000      -0.404005       -10.9935
  64   2.0000      -0.393669       -10.7123
  65   2.0000      -0.376228       -10.2377
  66   2.0000      -0.374373       -10.1872
  67   2.0000      -0.365566        -9.9475
  68   2.0000      -0.359324        -9.7777
  69   2.0000      -0.354695        -9.6518
  70   2.0000      -0.350443        -9.5360
  71   2.0000      -0.345136        -9.3916
  72   2.0000      -0.336589        -9.1591
  73   2.0000      -0.328442        -8.9374
  74   2.0000      -0.326519        -8.8850
  75   2.0000      -0.319311        -8.6889
  76   2.0000      -0.317504        -8.6397
  77   2.0000      -0.308338        -8.3903
  78   2.0000      -0.292392        -7.9564
  79   2.0000      -0.286317        -7.7911
  80   2.0000      -0.281969        -7.6728
  81   2.0000      -0.278856        -7.5881
  82   2.0000      -0.267356        -7.2751
  83   2.0000      -0.259538        -7.0624
  84   2.0000      -0.239047        -6.5048
  85   2.0000      -0.230799        -6.2804
  86   2.0000      -0.228785        -6.2256
  87   0.0000      -0.048499        -1.3197
  88   0.0000      -0.041072        -1.1176
  89   0.0000      -0.025211        -0.6860
  90   0.0000       0.001706         0.0464
  91   0.0000       0.007388         0.2010

MULLIKEN ATOMIC CHARGES
-----------------------
   0 C :   -0.507353
   1 C :   -0.130772
   2 O :   -0.169181
   3 C :    0.367131
   4 O :   -0.432377
   5 C :   -0.458713
   6 C :    0.037759
   7 H :    0.268053
   8 C :    0.176263
   9 O :   -0.436485
  10 O :   -0.128956
  11 C :   -0.140850
  12 C :   -0.513403
  13 S :   -0.201410
  14 P :    0.794525
  15 S :   -0.486103
  16 O :   -0.374772
  17 C :   -0.305562
  18 O :   -0.345704
  19 C :   -0.300391
  20 H :    0.169777
  21 H :    0.173374
  22 H :    0.173468
  23 H :    0.178159
  24 H :    0.176523
  25 H :    0.216890
  26 H :    0.240617
  27 H :    0.178428
  28 H :    0.178069
  29 H :    0.173012
  30 H :    0.169473
  31 H :    0.170959
  32 H :    0.175624
  33 H :    0.176856
  34 H :    0.180215
  35 H :    0.186431
  36 H :    0.187959
  37 H :    0.182467
Sum of atomic charges:   -0.0000000

LOEWDIN ATOMIC CHARGES
----------------------
   0 C :   -0.393704
   1 C :    0.037960
   2 O :   -0.582258
   3 C :    0.359083
   4 O :   -0.466426
   5 C :   -0.187484
   6 C :   -0.189939
   7 H :    0.214077
   8 C :    0.319515
   9 O :   -0.463341
  10 O :   -0.628352
  11 C :    0.040822
  12 C :   -0.386502
  13 S :    0.221295
  14 P :    0.403227
  15 S :   -0.103548
  16 O :   -0.693822
  17 C :   -0.054062
  18 O :   -0.672231
  19 C :   -0.044548
  20 H :    0.163481
  21 H :    0.168405
  22 H :    0.163857
  23 H :    0.191434
  24 H :    0.190942
  25 H :    0.199658
  26 H :    0.209015
  27 H :    0.191246
  28 H :    0.188989
  29 H :    0.169663
  30 H :    0.165276
  31 H :    0.168821
  32 H :    0.176521
  33 H :    0.177569
  34 H :    0.189221
  35 H :    0.183437
  36 H :    0.192439
  37 H :    0.180265

  Mayer bond orders larger than 0.100000
B(  0-C ,  1-C ) :   0.9182 B(  0-C , 20-H ) :   0.9665 B(  0-C , 21-H ) :   0.9576
B(  0-C , 22-H ) :   0.9683 B(  1-C ,  2-O ) :   0.7980 B(  1-C , 23-H ) :   0.9505
B(  1-C , 24-H ) :   0.9656 B(  2-O ,  3-C ) :   1.0982 B(  3-C ,  4-O ) :   1.7456
B(  3-C ,  5-C ) :   0.8947 B(  4-O ,  8-C ) :   0.1266 B(  5-C ,  6-C ) :   0.8203
B(  5-C , 25-H ) :   0.9760 B(  5-C , 26-H ) :   0.9672 B(  6-C ,  7-H ) :   0.9153
B(  6-C ,  8-C ) :   0.8747 B(  6-C , 13-S ) :   0.8693 B(  8-C ,  9-O ) :   1.7901
B(  8-C , 10-O ) :   1.1214 B( 10-O , 11-C ) :   0.7878 B( 11-C , 12-C ) :   0.9334
B( 11-C , 27-H ) :   0.9438 B( 11-C , 28-H ) :   0.9448 B( 12-C , 29-H ) :   0.9635
B( 12-C , 30-H ) :   0.9698 B( 12-C , 31-H ) :   0.9596 B( 13-S , 14-P ) :   0.9970
B( 14-P , 15-S ) :   1.7613 B( 14-P , 16-O ) :   1.0397 B( 14-P , 18-O ) :   1.1579
B( 16-O , 17-C ) :   0.8237 B( 17-C , 32-H ) :   0.9498 B( 17-C , 33-H ) :   0.9552
B( 17-C , 34-H ) :   0.9570 B( 18-O , 19-C ) :   0.7794 B( 19-C , 35-H ) :   0.9502
B( 19-C , 36-H ) :   0.9533 B( 19-C , 37-H ) :   0.9479

Dispersion correction           -0.018557664
FINAL SINGLE POINT ENERGY     -1981.470800113430

DIPOLE MOMENT
-------------

Method             : SCF
Type of density    : Electron Density
Multiplicity       :   1
Irrep              :   0
Energy             : -1981.4894882004621195 Eh
Relativity type    :
Basis              : AO
                                X                 Y                 Z
Electronic contribution:     -9.644421598       9.426011951      -8.317480508
Nuclear contribution   :      9.508389603     -13.055129687       8.524608107
                        -----------------------------------------
Total Dipole Moment    :     -0.136031995      -3.629117736       0.207127599
                        -----------------------------------------
Magnitude (a.u.)       :      3.637568156
Magnitude (Debye)      :      9.245963464

Rotational constants in cm-1:             0.013243             0.007829             0.007301
Rotational constants in MHz :           397.017925           234.701239           218.875434

                             ****ORCA TERMINATED NORMALLY****
TOTAL RUN TIME: 0 days 0 hours 2 minutes 9 seconds 174 msec
