                         Program Version 6.0.0  -   RELEASE  -
|  1> ! r2scan-3c def2/J RI DEFGRID2 scfconv6 printgap
|  2> %output
|  3>     printlevel normal
|  4> end
|  5> * xyz 0 1
|  6> C 3.1086986161 1.1540585597 2.9515922458
|  7> C 1.7073438558 0.7148641166 2.5849106977
|  8> O 1.4967933674 0.770714782 1.1566906839
|  9> P 2.2156954461 -0.2416386008 0.1764504501
| 10> S 2.6203917585 -2.0093834754 0.9298847843
| 11> O 3.4361621879 0.6404890802 -0.3286860391
| 12> C 4.3761144955 0.1759807077 -1.3180653092
| 13> C 5.5604453953 -0.5116014598 -0.6661786999
| 14> S 0.9188093289 -0.2403942793 -1.4975331354
| 15> C -0.1542201478 -1.5824345059 -0.9173763624
| 16> S -1.1833419413 -1.1022227209 0.4881014665
| 17> P -2.3787291671 0.3118072742 -0.5839650839
| 18> S -2.7579624487 -0.1251420762 -2.4490650027
| 19> O -1.6186536623 1.6862731572 -0.4377667019
| 20> C -1.3450860291 2.311205445 0.839629785
| 21> C -2.3542561873 3.4041580813 1.1241621726
| 22> O -3.6435835007 0.5169515275 0.3568009307
| 23> C -4.8218921648 -0.3049579927 0.2598372925
| 24> C -4.5556443072 -1.7472680338 0.6380212109
| 25> H 3.2097645409 1.1777486815 4.0320188434
| 26> H 3.831614337 0.4490308631 2.5426101344
| 27> H 3.3126850597 2.1407040139 2.5442970964
| 28> H 0.9503904406 1.386500463 2.9912896045
| 29> H 1.5185314703 -0.3087459206 2.9238792542
| 30> H 3.8647297597 -0.4949143773 -2.014722944
| 31> H 4.6831551693 1.0803776892 -1.8467953581
| 32> H 5.2347343883 -1.4024637644 -0.1337009842
| 33> H 6.2722326394 -0.7993760118 -1.4331440487
| 34> H 6.0428186192 0.1616018405 0.0370007226
| 35> H 0.4578217921 -2.4226620305 -0.5884571618
| 36> H -0.7916092232 -1.8534533666 -1.7588631424
| 37> H -1.3602554303 1.5431962441 1.6184487867
| 38> H -0.3343567948 2.7123276374 0.7382252502
| 39> H -3.3498509724 2.9798661052 1.2226266585
| 40> H -2.0842053188 3.9060527071 2.0480385655
| 41> H -2.3586183022 4.1249758952 0.3111842726
| 42> H -5.5243695214 0.1677385528 0.9477358477
| 43> H -5.2012395541 -0.2401809081 -0.7643676241
| 44> H -3.9115162875 -2.2150530601 -0.1050671437
| 45> H -4.0694609751 -1.8029678572 1.6089119242
| 46> H -5.4969461058 -2.2862341454 0.674173955
| 47> *
| 48>
| 49>                          ****END OF INPUT****

CARTESIAN COORDINATES (ANGSTROEM)
---------------------------------
  C      3.108699    1.154059    2.951592
  C      1.707344    0.714864    2.584911
  O      1.496793    0.770715    1.156691
  P      2.215695   -0.241639    0.176450
  S      2.620392   -2.009383    0.929885
  O      3.436162    0.640489   -0.328686
  C      4.376114    0.175981   -1.318065
  C      5.560445   -0.511601   -0.666179
  S      0.918809   -0.240394   -1.497533
  C     -0.154220   -1.582435   -0.917376
  S     -1.183342   -1.102223    0.488101
  P     -2.378729    0.311807   -0.583965
  S     -2.757962   -0.125142   -2.449065
  O     -1.618654    1.686273   -0.437767
  C     -1.345086    2.311205    0.839630
  C     -2.354256    3.404158    1.124162
  O     -3.643584    0.516952    0.356801
  C     -4.821892   -0.304958    0.259837
  C     -4.555644   -1.747268    0.638021
  H      3.209765    1.177749    4.032019
  H      3.831614    0.449031    2.542610
  H      3.312685    2.140704    2.544297
  H      0.950390    1.386500    2.991290
  H      1.518531   -0.308746    2.923879
  H      3.864730   -0.494914   -2.014723
  H      4.683155    1.080378   -1.846795
  H      5.234734   -1.402464   -0.133701
  H      6.272233   -0.799376   -1.433144
  H      6.042819    0.161602    0.037001
  H      0.457822   -2.422662   -0.588457
  H     -0.791609   -1.853453   -1.758863
  H     -1.360255    1.543196    1.618449
  H     -0.334357    2.712328    0.738225
  H     -3.349851    2.979866    1.222627
  H     -2.084205    3.906053    2.048039
  H     -2.358618    4.124976    0.311184
  H     -5.524370    0.167739    0.947736
  H     -5.201240   -0.240181   -0.764368
  H     -3.911516   -2.215053   -0.105067
  H     -4.069461   -1.802968    1.608912
  H     -5.496946   -2.286234    0.674174

 Total Charge           Charge          ....    0
 Multiplicity           Mult            ....    1
 Number of Electrons    NEL             ....  202
 Basis Dimension        Dim             ....  539

ORBITAL ENERGIES
----------------

  NO   OCC          E(Eh)            E(eV)
   0   2.0000     -88.573399     -2410.2047
   1   2.0000     -88.571640     -2410.1569
   2   2.0000     -88.522595     -2408.8223
   3   2.0000     -88.519815     -2408.7466
   4   2.0000     -76.915377     -2092.9738
   5   2.0000     -76.913023     -2092.9098
   6   2.0000     -18.995421      -516.8917
   7   2.0000     -18.994897      -516.8774
   8   2.0000     -18.992750      -516.8190
   9   2.0000     -18.987235      -516.6689
  10   2.0000     -10.102633      -274.9066
  11   2.0000     -10.101349      -274.8717
  12   2.0000     -10.101020      -274.8627
  13   2.0000     -10.100998      -274.8621
  14   2.0000     -10.099248      -274.8145
  15   2.0000     -10.031522      -272.9716
  16   2.0000     -10.030197      -272.9355
  17   2.0000     -10.029414      -272.9142
  18   2.0000     -10.027565      -272.8639
  19   2.0000      -7.867481      -214.0851
  20   2.0000      -7.865979      -214.0442
  21   2.0000      -7.817507      -212.7252
  22   2.0000      -7.814635      -212.6470
  23   2.0000      -6.593903      -179.4292
  24   2.0000      -6.591498      -179.3638
  25   2.0000      -5.814371      -158.2171
  26   2.0000      -5.812802      -158.1744
  27   2.0000      -5.811325      -158.1342
  28   2.0000      -5.809880      -158.0949
  29   2.0000      -5.804639      -157.9523
  30   2.0000      -5.803110      -157.9107
  31   2.0000      -5.765050      -156.8750
  32   2.0000      -5.762352      -156.8016
  33   2.0000      -5.757758      -156.6766
  34   2.0000      -5.757622      -156.6729
  35   2.0000      -5.754803      -156.5962
  36   2.0000      -5.754667      -156.5924
  37   2.0000      -4.739347      -128.9642
  38   2.0000      -4.738853      -128.9507
  39   2.0000      -4.737659      -128.9183
  40   2.0000      -4.737380      -128.9107
  41   2.0000      -4.736334      -128.8822
  42   2.0000      -4.734981      -128.8454
  43   2.0000      -1.052740       -28.6465
  44   2.0000      -1.051107       -28.6021
  45   2.0000      -1.013668       -27.5833
  46   2.0000      -1.009733       -27.4762
  47   2.0000      -0.800066       -21.7709
  48   2.0000      -0.758426       -20.6378
  49   2.0000      -0.749893       -20.4056
  50   2.0000      -0.735006       -20.0005
  51   2.0000      -0.733310       -19.9544
  52   2.0000      -0.710743       -19.3403
  53   2.0000      -0.686725       -18.6868
  54   2.0000      -0.669127       -18.2079
  55   2.0000      -0.631969       -17.1968
  56   2.0000      -0.625073       -17.0091
  57   2.0000      -0.607358       -16.5271
  58   2.0000      -0.605080       -16.4651
  59   2.0000      -0.591752       -16.1024
  60   2.0000      -0.530134       -14.4257
  61   2.0000      -0.520768       -14.1708
  62   2.0000      -0.497631       -13.5412
  63   2.0000      -0.494177       -13.4472
  64   2.0000      -0.475290       -12.9333
  65   2.0000      -0.468198       -12.7403
  66   2.0000      -0.459551       -12.5050
  67   2.0000      -0.453583       -12.3426
  68   2.0000      -0.444521       -12.0960
  69   2.0000      -0.434936       -11.8352
  70   2.0000      -0.424333       -11.5467
  71   2.0000      -0.412880       -11.2350
  72   2.0000      -0.411788       -11.2053
  73   2.0000      -0.407652       -11.0928
  74   2.0000      -0.393799       -10.7158
  75   2.0000      -0.390171       -10.6171
  76   2.0000      -0.382870       -10.4184
  77   2.0000      -0.376581       -10.2473
  78   2.0000      -0.370061       -10.0699
  79   2.0000      -0.368366       -10.0237
  80   2.0000      -0.362586        -9.8665
  81   2.0000      -0.359361        -9.7787
  82   2.0000      -0.358478        -9.7547
  83   2.0000      -0.354535        -9.6474
  84   2.0000      -0.350795        -9.5456
  85   2.0000      -0.336878        -9.1669
  86   2.0000      -0.324290        -8.8244
  87   2.0000      -0.313926        -8.5424
  88   2.0000      -0.312468        -8.5027
  89   2.0000      -0.308743        -8.4013
  90   2.0000      -0.304502        -8.2859
  91   2.0000      -0.293429        -7.9846
  92   2.0000      -0.284457        -7.7405
  93   2.0000      -0.279914        -7.6169
  94   2.0000      -0.272299        -7.4096
  95   2.0000      -0.245183        -6.6718
  96   2.0000      -0.230222        -6.2647
  97   2.0000      -0.226456        -6.1622
  98   2.0000      -0.217932        -5.9302
  99   2.0000      -0.214775        -5.8443
 100   2.0000      -0.213131        -5.7996
 101   0.0000      -0.044839        -1.2201
 102   0.0000      -0.023457        -0.6383
 103   0.0000      -0.001924        -0.0524
 104   0.0000      -0.000020        -0.0005
 105   0.0000       0.015019         0.4087

MULLIKEN ATOMIC CHARGES
-----------------------
   0 C :   -0.441972
   1 C :   -0.151457
   2 O :   -0.254663
   3 P :    0.675294
   4 S :   -0.489686
   5 O :   -0.297709
   6 C :   -0.137324
   7 C :   -0.454812
   8 S :   -0.120542
   9 C :   -0.236257
  10 S :   -0.163539
  11 P :    0.649157
  12 S :   -0.442736
  13 O :   -0.256859
  14 C :   -0.103329
  15 C :   -0.486281
  16 O :   -0.290473
  17 C :   -0.168909
  18 C :   -0.440018
  19 H :    0.147772
  20 H :    0.170378
  21 H :    0.156007
  22 H :    0.145978
  23 H :    0.177277
  24 H :    0.155641
  25 H :    0.151883
  26 H :    0.182283
  27 H :    0.146058
  28 H :    0.151370
  29 H :    0.212870
  30 H :    0.216753
  31 H :    0.155053
  32 H :    0.170269
  33 H :    0.165449
  34 H :    0.143770
  35 H :    0.160162
  36 H :    0.147441
  37 H :    0.175077
  38 H :    0.179303
  39 H :    0.153438
  40 H :    0.147884
Sum of atomic charges:    0.0000000

LOEWDIN ATOMIC CHARGES
----------------------
   0 C :   -0.398911
   1 C :    0.015228
   2 O :   -0.674470
   3 P :    0.377659
   4 S :   -0.136321
   5 O :   -0.659673
   6 C :    0.023262
   7 C :   -0.402224
   8 S :    0.176377
   9 C :   -0.425835
  10 S :    0.140556
  11 P :    0.383173
  12 S :   -0.099675
  13 O :   -0.649947
  14 C :    0.018488
  15 C :   -0.392649
  16 O :   -0.673571
  17 C :    0.022014
  18 C :   -0.408706
  19 H :    0.159746
  20 H :    0.166494
  21 H :    0.160555
  22 H :    0.177041
  23 H :    0.182375
  24 H :    0.176465
  25 H :    0.179835
  26 H :    0.169076
  27 H :    0.158582
  28 H :    0.157855
  29 H :    0.191765
  30 H :    0.191149
  31 H :    0.175120
  32 H :    0.187368
  33 H :    0.165317
  34 H :    0.157667
  35 H :    0.162836
  36 H :    0.178979
  37 H :    0.180791
  38 H :    0.166611
  39 H :    0.160180
  40 H :    0.159416

  Mayer bond orders larger than 0.100000
B(  0-C ,  1-C ) :   0.9260 B(  0-C , 19-H ) :   0.9629 B(  0-C , 20-H ) :   0.9579
B(  0-C , 21-H ) :   0.9720 B(  1-C ,  2-O ) :   0.7777 B(  1-C , 22-H ) :   0.9607
B(  1-C , 23-H ) :   0.9613 B(  2-O ,  3-P ) :   1.1418 B(  3-P ,  4-S ) :   1.7300
B(  3-P ,  5-O ) :   1.0730 B(  3-P ,  8-S ) :   1.1115 B(  5-O ,  6-C ) :   0.7815
B(  6-C ,  7-C ) :   0.9515 B(  6-C , 24-H ) :   0.9636 B(  6-C , 25-H ) :   0.9634
B(  7-C , 26-H ) :   0.9567 B(  7-C , 27-H ) :   0.9639 B(  7-C , 28-H ) :   0.9747
B(  8-S ,  9-C ) :   0.9098 B(  9-C , 10-S ) :   0.9049 B(  9-C , 29-H ) :   0.9038
B(  9-C , 30-H ) :   0.9079 B( 10-S , 11-P ) :   1.0130 B( 11-P , 12-S ) :   1.8353
B( 11-P , 13-O ) :   1.1432 B( 11-P , 16-O ) :   1.0317 B( 13-O , 14-C ) :   0.7341
B( 14-C , 15-C ) :   0.9302 B( 14-C , 31-H ) :   0.9693 B( 14-C , 32-H ) :   0.9539
B( 15-C , 33-H ) :   0.9708 B( 15-C , 34-H ) :   0.9660 B( 15-C , 35-H ) :   0.9739
B( 16-O , 17-C ) :   0.8183 B( 17-C , 18-C ) :   0.9181 B( 17-C , 36-H ) :   0.9614
B( 17-C , 37-H ) :   0.9685 B( 18-C , 38-H ) :   0.9635 B( 18-C , 39-H ) :   0.9668
B( 18-C , 40-H ) :   0.9564

Dispersion correction           -0.021526651
FINAL SINGLE POINT ENERGY     -2932.463496743278

DIPOLE MOMENT
-------------

Method             : SCF
Type of density    : Electron Density
Multiplicity       :   1
Irrep              :   0
Energy             : -2932.4884285596754125 Eh
Relativity type    :
Basis              : AO
                                X                 Y                 Z
Electronic contribution:     -4.595080482      -6.882126552     -13.811103609
Nuclear contribution   :      4.745770306       7.600680034      15.079468383
                        -----------------------------------------
Total Dipole Moment    :      0.150689824       0.718553482       1.268364774
                        -----------------------------------------
Magnitude (a.u.)       :      1.465529164
Magnitude (Debye)      :      3.725079098

Rotational constants in cm-1:             0.013421             0.004719             0.004409
Rotational constants in MHz :           402.341632           141.463690           132.191340

                             ****ORCA TERMINATED NORMALLY****
TOTAL RUN TIME: 0 days 0 hours 1 minutes 19 seconds 922 msec
