                         Program Version 6.0.0  -   RELEASE  -
|  1> ! r2scan-3c def2/J RI DEFGRID2 scfconv6 printgap
|  2> %output
|  3>     printlevel normal
|  4> end
|  5> %cpcm
|  6>     smd true
|  7>     smdsolvent "water"
|  8> end
|  9> * xyz 0 1
| 10> C 3.1086986161 1.1540585597 2.9515922458
| 11> C 1.7073438558 0.7148641166 2.5849106977
| 12> O 1.4967933674 0.770714782 1.1566906839
| 13> P 2.2156954461 -0.2416386008 0.1764504501
| 14> S 2.6203917585 -2.0093834754 0.9298847843
| 15> O 3.4361621879 0.6404890802 -0.3286860391
| 16> C 4.3761144955 0.1759807077 -1.3180653092
| 17> C 5.5604453953 -0.5116014598 -0.6661786999
| 18> S 0.9188093289 -0.2403942793 -1.4975331354
| 19> C -0.1542201478 -1.5824345059 -0.9173763624
| 20> S -1.1833419413 -1.1022227209 0.4881014665
| 21> P -2.3787291671 0.3118072742 -0.5839650839
| 22> S -2.7579624487 -0.1251420762 -2.4490650027
| 23> O -1.6186536623 1.6862731572 -0.4377667019
| 24> C -1.3450860291 2.311205445 0.839629785
| 25> C -2.3542561873 3.4041580813 1.1241621726
| 26> O -3.6435835007 0.5169515275 0.3568009307
| 27> C -4.8218921648 -0.3049579927 0.2598372925
| 28> C -4.5556443072 -1.7472680338 0.6380212109
| 29> H 3.2097645409 1.1777486815 4.0320188434
| 30> H 3.831614337 0.4490308631 2.5426101344
| 31> H 3.3126850597 2.1407040139 2.5442970964
| 32> H 0.9503904406 1.386500463 2.9912896045
| 33> H 1.5185314703 -0.3087459206 2.9238792542
| 34> H 3.8647297597 -0.4949143773 -2.014722944
| 35> H 4.6831551693 1.0803776892 -1.8467953581
| 36> H 5.2347343883 -1.4024637644 -0.1337009842
| 37> H 6.2722326394 -0.7993760118 -1.4331440487
| 38> H 6.0428186192 0.1616018405 0.0370007226
| 39> H 0.4578217921 -2.4226620305 -0.5884571618
| 40> H -0.7916092232 -1.8534533666 -1.7588631424
| 41> H -1.3602554303 1.5431962441 1.6184487867
| 42> H -0.3343567948 2.7123276374 0.7382252502
| 43> H -3.3498509724 2.9798661052 1.2226266585
| 44> H -2.0842053188 3.9060527071 2.0480385655
| 45> H -2.3586183022 4.1249758952 0.3111842726
| 46> H -5.5243695214 0.1677385528 0.9477358477
| 47> H -5.2012395541 -0.2401809081 -0.7643676241
| 48> H -3.9115162875 -2.2150530601 -0.1050671437
| 49> H -4.0694609751 -1.8029678572 1.6089119242
| 50> H -5.4969461058 -2.2862341454 0.674173955
| 51> *
| 52>
| 53>                          ****END OF INPUT****

CARTESIAN COORDINATES (ANGSTROEM)
---------------------------------
  C      3.108699    1.154059    2.951592
  C      1.707344    0.714864    2.584911
  O      1.496793    0.770715    1.156691
  P      2.215695   -0.241639    0.176450
  S      2.620392   -2.009383    0.929885
  O      3.436162    0.640489   -0.328686
  C      4.376114    0.175981   -1.318065
  C      5.560445   -0.511601   -0.666179
  S      0.918809   -0.240394   -1.497533
  C     -0.154220   -1.582435   -0.917376
  S     -1.183342   -1.102223    0.488101
  P     -2.378729    0.311807   -0.583965
  S     -2.757962   -0.125142   -2.449065
  O     -1.618654    1.686273   -0.437767
  C     -1.345086    2.311205    0.839630
  C     -2.354256    3.404158    1.124162
  O     -3.643584    0.516952    0.356801
  C     -4.821892   -0.304958    0.259837
  C     -4.555644   -1.747268    0.638021
  H      3.209765    1.177749    4.032019
  H      3.831614    0.449031    2.542610
  H      3.312685    2.140704    2.544297
  H      0.950390    1.386500    2.991290
  H      1.518531   -0.308746    2.923879
  H      3.864730   -0.494914   -2.014723
  H      4.683155    1.080378   -1.846795
  H      5.234734   -1.402464   -0.133701
  H      6.272233   -0.799376   -1.433144
  H      6.042819    0.161602    0.037001
  H      0.457822   -2.422662   -0.588457
  H     -0.791609   -1.853453   -1.758863
  H     -1.360255    1.543196    1.618449
  H     -0.334357    2.712328    0.738225
  H     -3.349851    2.979866    1.222627
  H     -2.084205    3.906053    2.048039
  H     -2.358618    4.124976    0.311184
  H     -5.524370    0.167739    0.947736
  H     -5.201240   -0.240181   -0.764368
  H     -3.911516   -2.215053   -0.105067
  H     -4.069461   -1.802968    1.608912
  H     -5.496946   -2.286234    0.674174

 Total Charge           Charge          ....    0
 Multiplicity           Mult            ....    1
 Number of Electrons    NEL             ....  202
 Basis Dimension        Dim             ....  539

ORBITAL ENERGIES
----------------

  NO   OCC          E(Eh)            E(eV)
   0   2.0000     -88.579027     -2410.3579
   1   2.0000     -88.575841     -2410.2712
   2   2.0000     -88.530878     -2409.0477
   3   2.0000     -88.528472     -2408.9822
   4   2.0000     -76.920120     -2093.1029
   5   2.0000     -76.919569     -2093.0879
   6   2.0000     -18.996457      -516.9199
   7   2.0000     -18.996422      -516.9189
   8   2.0000     -18.993326      -516.8347
   9   2.0000     -18.993112      -516.8289
  10   2.0000     -10.102642      -274.9069
  11   2.0000     -10.091976      -274.6166
  12   2.0000     -10.091263      -274.5972
  13   2.0000     -10.090920      -274.5879
  14   2.0000     -10.089342      -274.5449
  15   2.0000     -10.018739      -272.6237
  16   2.0000     -10.018484      -272.6168
  17   2.0000     -10.018226      -272.6098
  18   2.0000     -10.016789      -272.5707
  19   2.0000      -7.873234      -214.2416
  20   2.0000      -7.870156      -214.1578
  21   2.0000      -7.826055      -212.9578
  22   2.0000      -7.823642      -212.8921
  23   2.0000      -6.598627      -179.5578
  24   2.0000      -6.598122      -179.5440
  25   2.0000      -5.820068      -158.3721
  26   2.0000      -5.817055      -158.2901
  27   2.0000      -5.816999      -158.2886
  28   2.0000      -5.814086      -158.2093
  29   2.0000      -5.810470      -158.1109
  30   2.0000      -5.807243      -158.0231
  31   2.0000      -5.773659      -157.1092
  32   2.0000      -5.771144      -157.0408
  33   2.0000      -5.766199      -156.9062
  34   2.0000      -5.766154      -156.9050
  35   2.0000      -5.763892      -156.8435
  36   2.0000      -5.763749      -156.8396
  37   2.0000      -4.744438      -129.1027
  38   2.0000      -4.743504      -129.0773
  39   2.0000      -4.743439      -129.0755
  40   2.0000      -4.743070      -129.0655
  41   2.0000      -4.742244      -129.0430
  42   2.0000      -4.741970      -129.0356
  43   2.0000      -1.054140       -28.6846
  44   2.0000      -1.053364       -28.6635
  45   2.0000      -1.013577       -27.5808
  46   2.0000      -1.012458       -27.5504
  47   2.0000      -0.803596       -21.8670
  48   2.0000      -0.755253       -20.5515
  49   2.0000      -0.744002       -20.2453
  50   2.0000      -0.726206       -19.7611
  51   2.0000      -0.723257       -19.6808
  52   2.0000      -0.710289       -19.3279
  53   2.0000      -0.690115       -18.7790
  54   2.0000      -0.675484       -18.3808
  55   2.0000      -0.629478       -17.1290
  56   2.0000      -0.621292       -16.9062
  57   2.0000      -0.602454       -16.3936
  58   2.0000      -0.597353       -16.2548
  59   2.0000      -0.590319       -16.0634
  60   2.0000      -0.526596       -14.3294
  61   2.0000      -0.516711       -14.0604
  62   2.0000      -0.492710       -13.4073
  63   2.0000      -0.490458       -13.3460
  64   2.0000      -0.475570       -12.9409
  65   2.0000      -0.464200       -12.6315
  66   2.0000      -0.454291       -12.3619
  67   2.0000      -0.448892       -12.2150
  68   2.0000      -0.438122       -11.9219
  69   2.0000      -0.431746       -11.7484
  70   2.0000      -0.419350       -11.4111
  71   2.0000      -0.411894       -11.2082
  72   2.0000      -0.407867       -11.0986
  73   2.0000      -0.401966       -10.9381
  74   2.0000      -0.394053       -10.7227
  75   2.0000      -0.387739       -10.5509
  76   2.0000      -0.380538       -10.3550
  77   2.0000      -0.371224       -10.1015
  78   2.0000      -0.363359        -9.8875
  79   2.0000      -0.362379        -9.8608
  80   2.0000      -0.353229        -9.6119
  81   2.0000      -0.352060        -9.5800
  82   2.0000      -0.351779        -9.5724
  83   2.0000      -0.347660        -9.4603
  84   2.0000      -0.345305        -9.3962
  85   2.0000      -0.334431        -9.1003
  86   2.0000      -0.322847        -8.7851
  87   2.0000      -0.308468        -8.3939
  88   2.0000      -0.306852        -8.3499
  89   2.0000      -0.304222        -8.2783
  90   2.0000      -0.300041        -8.1645
  91   2.0000      -0.290869        -7.9149
  92   2.0000      -0.284833        -7.7507
  93   2.0000      -0.279501        -7.6056
  94   2.0000      -0.275146        -7.4871
  95   2.0000      -0.250229        -6.8091
  96   2.0000      -0.238470        -6.4891
  97   2.0000      -0.235777        -6.4158
  98   2.0000      -0.225615        -6.1393
  99   2.0000      -0.223519        -6.0823
 100   2.0000      -0.220586        -6.0024
 101   0.0000      -0.051077        -1.3899
 102   0.0000      -0.030740        -0.8365
 103   0.0000      -0.006808        -0.1853
 104   0.0000      -0.004393        -0.1195
 105   0.0000       0.013715         0.3732

MULLIKEN ATOMIC CHARGES
-----------------------
   0 C :   -0.484984
   1 C :   -0.144219
   2 O :   -0.280370
   3 P :    0.707715
   4 S :   -0.528375
   5 O :   -0.324134
   6 C :   -0.131349
   7 C :   -0.491243
   8 S :   -0.150444
   9 C :   -0.242809
  10 S :   -0.162706
  11 P :    0.664917
  12 S :   -0.497130
  13 O :   -0.293313
  14 C :   -0.087795
  15 C :   -0.532465
  16 O :   -0.306817
  17 C :   -0.161429
  18 C :   -0.478123
  19 H :    0.173047
  20 H :    0.167521
  21 H :    0.170934
  22 H :    0.180537
  23 H :    0.177410
  24 H :    0.164970
  25 H :    0.177365
  26 H :    0.171911
  27 H :    0.169830
  28 H :    0.167631
  29 H :    0.232282
  30 H :    0.233747
  31 H :    0.175310
  32 H :    0.181617
  33 H :    0.170436
  34 H :    0.171343
  35 H :    0.168790
  36 H :    0.176285
  37 H :    0.179696
  38 H :    0.173806
  39 H :    0.167961
  40 H :    0.172642
Sum of atomic charges:    0.0000000

LOEWDIN ATOMIC CHARGES
----------------------
   0 C :   -0.402416
   1 C :    0.021419
   2 O :   -0.684285
   3 P :    0.382161
   4 S :   -0.159947
   5 O :   -0.671788
   6 C :    0.028471
   7 C :   -0.405924
   8 S :    0.157968
   9 C :   -0.420954
  10 S :    0.145201
  11 P :    0.385756
  12 S :   -0.140582
  13 O :   -0.675487
  14 C :    0.025133
  15 C :   -0.394778
  16 O :   -0.676176
  17 C :    0.028213
  18 C :   -0.411438
  19 H :    0.169156
  20 H :    0.162729
  21 H :    0.164247
  22 H :    0.191062
  23 H :    0.182505
  24 H :    0.180286
  25 H :    0.190706
  26 H :    0.163140
  27 H :    0.167444
  28 H :    0.162466
  29 H :    0.197371
  30 H :    0.196203
  31 H :    0.183586
  32 H :    0.192581
  33 H :    0.165448
  34 H :    0.168966
  35 H :    0.164279
  36 H :    0.191431
  37 H :    0.181884
  38 H :    0.161809
  39 H :    0.163726
  40 H :    0.168430

  Mayer bond orders larger than 0.100000
B(  0-C ,  1-C ) :   0.9127 B(  0-C , 19-H ) :   0.9569 B(  0-C , 20-H ) :   0.9582
B(  0-C , 21-H ) :   0.9713 B(  1-C ,  2-O ) :   0.7656 B(  1-C , 22-H ) :   0.9501
B(  1-C , 23-H ) :   0.9579 B(  2-O ,  3-P ) :   1.1508 B(  3-P ,  4-S ) :   1.7023
B(  3-P ,  5-O ) :   1.0800 B(  3-P ,  8-S ) :   1.1128 B(  5-O ,  6-C ) :   0.7699
B(  6-C ,  7-C ) :   0.9426 B(  6-C , 24-H ) :   0.9570 B(  6-C , 25-H ) :   0.9534
B(  7-C , 26-H ) :   0.9608 B(  7-C , 27-H ) :   0.9590 B(  7-C , 28-H ) :   0.9717
B(  8-S ,  9-C ) :   0.8982 B(  9-C , 10-S ) :   0.8952 B(  9-C , 29-H ) :   0.9006
B(  9-C , 30-H ) :   0.9033 B( 10-S , 11-P ) :   1.0221 B( 11-P , 12-S ) :   1.8122
B( 11-P , 13-O ) :   1.1480 B( 11-P , 16-O ) :   1.0468 B( 13-O , 14-C ) :   0.7223
B( 14-C , 15-C ) :   0.9269 B( 14-C , 31-H ) :   0.9558 B( 14-C , 32-H ) :   0.9452
B( 15-C , 33-H ) :   0.9696 B( 15-C , 34-H ) :   0.9588 B( 15-C , 35-H ) :   0.9725
B( 16-O , 17-C ) :   0.8059 B( 17-C , 18-C ) :   0.9057 B( 17-C , 36-H ) :   0.9504
B( 17-C , 37-H ) :   0.9673 B( 18-C , 38-H ) :   0.9654 B( 18-C , 39-H ) :   0.9642
B( 18-C , 40-H ) :   0.9512

Dispersion correction           -0.021526651
FINAL SINGLE POINT ENERGY     -2932.472749753737

DIPOLE MOMENT
-------------

Method             : SCF
Type of density    : Electron Density
Multiplicity       :   1
Irrep              :   0
Energy             : -2932.4976815701347732 Eh
Relativity type    :
Basis              : AO
                                X                 Y                 Z
Electronic contribution:     -4.617022292      -6.764563656     -13.197185651
Nuclear contribution   :      4.745770306       7.600680034      15.079468383
                        -----------------------------------------
Total Dipole Moment    :      0.128748014       0.836116377       1.882282733
                        -----------------------------------------
Magnitude (a.u.)       :      2.063650875
Magnitude (Debye)      :      5.245383666

Rotational constants in cm-1:             0.013421             0.004719             0.004409
Rotational constants in MHz :           402.341632           141.463690           132.191340

                             ****ORCA TERMINATED NORMALLY****
TOTAL RUN TIME: 0 days 0 hours 1 minutes 48 seconds 809 msec
