                         Program Version 6.0.0  -   RELEASE  -
|  1> ! pbe def2-sv(p) def2/J RI DEFGRID1 loosescf d4 GCP(DFT/SV(P)) printgap
|  2> %output
|  3>     printlevel normal
|  4> end
|  5> * xyz 0 1
|  6> C 5.4862438559 -0.0611176729 0.6889373168
|  7> C 4.3976047586 -1.0680179002 0.3799709759
|  8> O 3.6805188999 -0.7049129774 -0.8266895722
|  9> P 2.3378517957 0.1182840336 -0.8409516537
| 10> S 1.6917034689 0.3567564518 -2.6699173543
| 11> O 2.7472192837 1.441563292 -0.0589920424
| 12> C 1.8873674895 2.589111794 0.0663586826
| 13> C 1.2461891268 2.63380014 1.4393190666
| 14> S 1.0544526174 -0.9329099429 0.4999138189
| 15> C -0.0596879984 -1.7022226847 -0.7221716965
| 16> S -1.7140374999 -1.9265463129 -0.0531908084
| 17> P -2.1483488758 0.1257903928 0.3553780994
| 18> S -1.498500183 1.3977124283 -0.9875926581
| 19> O -1.5670720686 0.459794117 1.7827950739
| 20> C -2.1324648251 0.0644380043 3.0576913667
| 21> C -2.0453852715 -1.4288739377 3.2927935697
| 22> O -3.7143128581 0.1343303902 0.6231606828
| 23> C -4.6869231532 0.2893445926 -0.425072216
| 24> C -4.6917216841 -0.8795051737 -1.3885605231
| 25> H 6.0462804674 -0.3995568702 1.5551106751
| 26> H 6.1581404004 0.0314208253 -0.1599286418
| 27> H 5.0526609947 0.9128427585 0.8984202231
| 28> H 3.6830362186 -1.1483143118 1.2043514934
| 29> H 4.817087409 -2.0505850064 0.156909685
| 30> H 2.5426211805 3.4478237208 -0.092460148
| 31> H 1.1305733673 2.5650907664 -0.7247214914
| 32> H 0.5575714088 1.8012623565 1.5666953709
| 33> H 2.0095557459 2.5854717626 2.2105024668
| 34> H 0.6900031687 3.5608106198 1.5361801022
| 35> H 0.3073816532 -2.6938580742 -0.975377765
| 36> H -0.0922681398 -1.0552837856 -1.6039688969
| 37> H -1.525445056 0.6177523503 3.7759695868
| 38> H -3.1665391164 0.4106032854 3.0964640803
| 39> H -2.3347954931 -1.640852165 4.3173351955
| 40> H -2.7115769837 -1.9621941557 2.6185403407
| 41> H -1.0277231691 -1.7758923084 3.1289134718
| 42> H -5.6332196459 0.3717793168 0.1117036014
| 43> H -4.4768170239 1.2233954375 -0.9552736296
| 44> H -3.7688012983 -0.8913295869 -1.9666296079
| 45> H -4.7786975603 -1.8181923758 -0.8473428012
| 46> H -5.5293006808 -0.7764872441 -2.0710426153
| 47> *
| 48>
| 49>                          ****END OF INPUT****

CARTESIAN COORDINATES (ANGSTROEM)
---------------------------------
  C      5.486244   -0.061118    0.688937
  C      4.397605   -1.068018    0.379971
  O      3.680519   -0.704913   -0.826690
  P      2.337852    0.118284   -0.840952
  S      1.691703    0.356756   -2.669917
  O      2.747219    1.441563   -0.058992
  C      1.887367    2.589112    0.066359
  C      1.246189    2.633800    1.439319
  S      1.054453   -0.932910    0.499914
  C     -0.059688   -1.702223   -0.722172
  S     -1.714037   -1.926546   -0.053191
  P     -2.148349    0.125790    0.355378
  S     -1.498500    1.397712   -0.987593
  O     -1.567072    0.459794    1.782795
  C     -2.132465    0.064438    3.057691
  C     -2.045385   -1.428874    3.292794
  O     -3.714313    0.134330    0.623161
  C     -4.686923    0.289345   -0.425072
  C     -4.691722   -0.879505   -1.388561
  H      6.046280   -0.399557    1.555111
  H      6.158140    0.031421   -0.159929
  H      5.052661    0.912843    0.898420
  H      3.683036   -1.148314    1.204351
  H      4.817087   -2.050585    0.156910
  H      2.542621    3.447824   -0.092460
  H      1.130573    2.565091   -0.724721
  H      0.557571    1.801262    1.566695
  H      2.009556    2.585472    2.210502
  H      0.690003    3.560811    1.536180
  H      0.307382   -2.693858   -0.975378
  H     -0.092268   -1.055284   -1.603969
  H     -1.525445    0.617752    3.775970
  H     -3.166539    0.410603    3.096464
  H     -2.334795   -1.640852    4.317335
  H     -2.711577   -1.962194    2.618540
  H     -1.027723   -1.775892    3.128913
  H     -5.633220    0.371779    0.111704
  H     -4.476817    1.223395   -0.955274
  H     -3.768801   -0.891330   -1.966630
  H     -4.778698   -1.818192   -0.847343
  H     -5.529301   -0.776487   -2.071043

 Total Charge           Charge          ....    0
 Multiplicity           Mult            ....    1
 Number of Electrons    NEL             ....  202
 Basis Dimension        Dim             ....  334

ORBITAL ENERGIES
----------------

  NO   OCC          E(Eh)            E(eV)
   0   2.0000     -88.045625     -2395.8433
   1   2.0000     -88.037588     -2395.6246
   2   2.0000     -87.983536     -2394.1537
   3   2.0000     -87.976958     -2393.9747
   4   2.0000     -76.429139     -2079.7426
   5   2.0000     -76.419029     -2079.4675
   6   2.0000     -18.799352      -511.5564
   7   2.0000     -18.793081      -511.3857
   8   2.0000     -18.786834      -511.2157
   9   2.0000     -18.785045      -511.1671
  10   2.0000      -9.959799      -271.0199
  11   2.0000      -9.957694      -270.9626
  12   2.0000      -9.953168      -270.8395
  13   2.0000      -9.950182      -270.7582
  14   2.0000      -9.940686      -270.4998
  15   2.0000      -9.890161      -269.1250
  16   2.0000      -9.886760      -269.0324
  17   2.0000      -9.883074      -268.9321
  18   2.0000      -9.871436      -268.6154
  19   2.0000      -7.690364      -209.2655
  20   2.0000      -7.682036      -209.0388
  21   2.0000      -7.628358      -207.5782
  22   2.0000      -7.622296      -207.4132
  23   2.0000      -6.426118      -174.8636
  24   2.0000      -6.416687      -174.6069
  25   2.0000      -5.718288      -155.6025
  26   2.0000      -5.714842      -155.5088
  27   2.0000      -5.709837      -155.3726
  28   2.0000      -5.707383      -155.3058
  29   2.0000      -5.706633      -155.2854
  30   2.0000      -5.699082      -155.0799
  31   2.0000      -5.657409      -153.9459
  32   2.0000      -5.651327      -153.7804
  33   2.0000      -5.648908      -153.7146
  34   2.0000      -5.648467      -153.7026
  35   2.0000      -5.642743      -153.5468
  36   2.0000      -5.642445      -153.5387
  37   2.0000      -4.649207      -126.5114
  38   2.0000      -4.647715      -126.4708
  39   2.0000      -4.646327      -126.4330
  40   2.0000      -4.639467      -126.2463
  41   2.0000      -4.638437      -126.2183
  42   2.0000      -4.636954      -126.1779
  43   2.0000      -0.992346       -27.0031
  44   2.0000      -0.981527       -26.7087
  45   2.0000      -0.948279       -25.8040
  46   2.0000      -0.938428       -25.5359
  47   2.0000      -0.761197       -20.7132
  48   2.0000      -0.720050       -19.5936
  49   2.0000      -0.709995       -19.3199
  50   2.0000      -0.694237       -18.8911
  51   2.0000      -0.682648       -18.5758
  52   2.0000      -0.674494       -18.3539
  53   2.0000      -0.648824       -17.6554
  54   2.0000      -0.630379       -17.1535
  55   2.0000      -0.598401       -16.2833
  56   2.0000      -0.584835       -15.9142
  57   2.0000      -0.583382       -15.8746
  58   2.0000      -0.568326       -15.4649
  59   2.0000      -0.555805       -15.1242
  60   2.0000      -0.500503       -13.6194
  61   2.0000      -0.496656       -13.5147
  62   2.0000      -0.474491       -12.9115
  63   2.0000      -0.472945       -12.8695
  64   2.0000      -0.453219       -12.3327
  65   2.0000      -0.444185       -12.0869
  66   2.0000      -0.442427       -12.0391
  67   2.0000      -0.438428       -11.9302
  68   2.0000      -0.430890       -11.7251
  69   2.0000      -0.416526       -11.3342
  70   2.0000      -0.412474       -11.2240
  71   2.0000      -0.402658       -10.9569
  72   2.0000      -0.386847       -10.5266
  73   2.0000      -0.381270       -10.3749
  74   2.0000      -0.377176       -10.2635
  75   2.0000      -0.370485       -10.0814
  76   2.0000      -0.360882        -9.8201
  77   2.0000      -0.358967        -9.7680
  78   2.0000      -0.355445        -9.6721
  79   2.0000      -0.352808        -9.6004
  80   2.0000      -0.348205        -9.4751
  81   2.0000      -0.344954        -9.3867
  82   2.0000      -0.340900        -9.2763
  83   2.0000      -0.336891        -9.1673
  84   2.0000      -0.325986        -8.8705
  85   2.0000      -0.319407        -8.6915
  86   2.0000      -0.312492        -8.5033
  87   2.0000      -0.300556        -8.1785
  88   2.0000      -0.296860        -8.0780
  89   2.0000      -0.287530        -7.8241
  90   2.0000      -0.282316        -7.6822
  91   2.0000      -0.275896        -7.5075
  92   2.0000      -0.269553        -7.3349
  93   2.0000      -0.263906        -7.1813
  94   2.0000      -0.254508        -6.9255
  95   2.0000      -0.231697        -6.3048
  96   2.0000      -0.220087        -5.9889
  97   2.0000      -0.205956        -5.6043
  98   2.0000      -0.199702        -5.4342
  99   2.0000      -0.193422        -5.2633
 100   2.0000      -0.185959        -5.0602
 101   0.0000      -0.045550        -1.2395
 102   0.0000      -0.030808        -0.8383
 103   0.0000      -0.009644        -0.2624
 104   0.0000       0.007069         0.1923
 105   0.0000       0.015940         0.4338

MULLIKEN ATOMIC CHARGES
-----------------------
   0 C :   -0.289485
   1 C :   -0.012981
   2 O :   -0.356515
   3 P :    0.611563
   4 S :   -0.295164
   5 O :   -0.383253
   6 C :   -0.010089
   7 C :   -0.318718
   8 S :   -0.138472
   9 C :   -0.341975
  10 S :   -0.111910
  11 P :    0.615295
  12 S :   -0.302491
  13 O :   -0.354202
  14 C :    0.004386
  15 C :   -0.316056
  16 O :   -0.385685
  17 C :    0.000956
  18 C :   -0.322244
  19 H :    0.106738
  20 H :    0.119681
  21 H :    0.123744
  22 H :    0.100822
  23 H :    0.108065
  24 H :    0.101084
  25 H :    0.124968
  26 H :    0.152092
  27 H :    0.098909
  28 H :    0.106518
  29 H :    0.179845
  30 H :    0.214297
  31 H :    0.109456
  32 H :    0.111090
  33 H :    0.113096
  34 H :    0.123860
  35 H :    0.124613
  36 H :    0.104567
  37 H :    0.114973
  38 H :    0.135817
  39 H :    0.116579
  40 H :    0.116229
Sum of atomic charges:    0.0000000

LOEWDIN ATOMIC CHARGES
----------------------
   0 C :   -0.360300
   1 C :   -0.114735
   2 O :   -0.239838
   3 P :    0.566785
   4 S :   -0.289628
   5 O :   -0.245166
   6 C :   -0.117539
   7 C :   -0.368602
   8 S :    0.054314
   9 C :   -0.481404
  10 S :    0.084073
  11 P :    0.570172
  12 S :   -0.296508
  13 O :   -0.232393
  14 C :   -0.107812
  15 C :   -0.368854
  16 O :   -0.248382
  17 C :   -0.115713
  18 C :   -0.371431
  19 H :    0.127902
  20 H :    0.128954
  21 H :    0.126323
  22 H :    0.101241
  23 H :    0.120443
  24 H :    0.115975
  25 H :    0.109358
  26 H :    0.123121
  27 H :    0.117857
  28 H :    0.129825
  29 H :    0.134500
  30 H :    0.123197
  31 H :    0.121674
  32 H :    0.114638
  33 H :    0.130728
  34 H :    0.117786
  35 H :    0.126358
  36 H :    0.118420
  37 H :    0.114491
  38 H :    0.124553
  39 H :    0.122755
  40 H :    0.132862

  Mayer bond orders larger than 0.100000
B(  0-C ,  1-C ) :   1.1627 B(  0-C , 19-H ) :   0.9396 B(  0-C , 20-H ) :   0.9470
B(  0-C , 21-H ) :   0.9406 B(  1-C ,  2-O ) :   0.9003 B(  1-C , 22-H ) :   0.9124
B(  1-C , 23-H ) :   0.9369 B(  2-O ,  3-P ) :   1.1345 B(  3-P ,  4-S ) :   1.6652
B(  3-P ,  5-O ) :   1.0935 B(  3-P ,  8-S ) :   0.9378 B(  4-S ,  8-S ) :   0.1176
B(  5-O ,  6-C ) :   0.8919 B(  6-C ,  7-C ) :   1.1721 B(  6-C , 24-H ) :   0.9350
B(  6-C , 25-H ) :   0.9007 B(  7-C , 26-H ) :   0.9228 B(  7-C , 27-H ) :   0.9470
B(  7-C , 28-H ) :   0.9401 B(  8-S ,  9-C ) :   0.9886 B(  9-C , 10-S ) :   1.0101
B(  9-C , 29-H ) :   0.9095 B(  9-C , 30-H ) :   0.8422 B( 10-S , 11-P ) :   0.9325
B( 10-S , 12-S ) :   0.1104 B( 11-P , 12-S ) :   1.6482 B( 11-P , 13-O ) :   1.1136
B( 11-P , 16-O ) :   1.0804 B( 13-O , 14-C ) :   0.8994 B( 14-C , 15-C ) :   1.1711
B( 14-C , 31-H ) :   0.9337 B( 14-C , 32-H ) :   0.9263 B( 15-C , 33-H ) :   0.9356
B( 15-C , 34-H ) :   0.9399 B( 15-C , 35-H ) :   0.9421 B( 16-O , 17-C ) :   0.9024
B( 17-C , 18-C ) :   1.1675 B( 17-C , 36-H ) :   0.9342 B( 17-C , 37-H ) :   0.9180
B( 18-C , 38-H ) :   0.9339 B( 18-C , 39-H ) :   0.9437 B( 18-C , 40-H ) :   0.9365

Dispersion correction           -0.066296532
FINAL SINGLE POINT ENERGY     -2929.516416197379

DIPOLE MOMENT
-------------

Method             : SCF
Type of density    : Electron Density
Multiplicity       :   1
Irrep              :   0
Energy             : -2929.6356691149790095 Eh
Relativity type    :
Basis              : AO
                                X                 Y                 Z
Electronic contribution:      1.364685608      -1.593604062     -14.388072762
Nuclear contribution   :     -2.062351293       1.067973099      16.292173364
                        -----------------------------------------
Total Dipole Moment    :     -0.697665686      -0.525630964       1.904100602
                        -----------------------------------------
Magnitude (a.u.)       :      2.094904394
Magnitude (Debye)      :      5.324823800

Rotational constants in cm-1:             0.013027             0.004966             0.004733
Rotational constants in MHz :           390.535849           148.866062           141.895735

                             ****ORCA TERMINATED NORMALLY****
TOTAL RUN TIME: 0 days 0 hours 0 minutes 21 seconds 191 msec
