                         Program Version 6.0.0  -   RELEASE  -
|  1> ! pbe def2-sv(p) def2/J RI DEFGRID1 loosescf d4 GCP(DFT/SV(P)) printgap
|  2> %output
|  3>     printlevel normal
|  4> end
|  5> * xyz 0 1
|  6> C 3.06734898 1.4300804829 2.945428101
|  7> C 1.700966218 0.8865271379 2.5856196497
|  8> O 1.5170754326 0.8509396878 1.1555749209
|  9> P 2.264158179 -0.2096181446 0.2429064947
| 10> S 2.6968288343 -1.8912615022 1.1616662
| 11> O 3.4694675949 0.671016657 -0.2986623141
| 12> C 4.2282510817 0.4167656931 -1.4944837615
| 13> C 4.7441051148 -1.0049348972 -1.5772136577
| 14> S 0.9647677497 -0.353318982 -1.4230754908
| 15> C -0.0942537185 -1.6478617133 -0.7261648078
| 16> S -1.1391627365 -1.0564584307 0.6250536784
| 17> P -2.3330480744 0.2520124939 -0.5748659506
| 18> S -2.7034057493 -0.3511666446 -2.3948644423
| 19> O -1.5768353366 1.6362987807 -0.5492773755
| 20> C -1.3156859316 2.3752925453 0.6685190494
| 21> C -2.3224643823 3.4941754035 0.8365667132
| 22> O -3.6023962244 0.5380965819 0.3386741618
| 23> C -4.7785261279 -0.2918837666 0.3117414139
| 24> C -4.5130988041 -1.68993674 0.830541147
| 25> H 3.1577705213 1.4992677928 4.0247744163
| 26> H 3.837487975 0.7594823643 2.5653963836
| 27> H 3.2107819806 2.4122229257 2.503259625
| 28> H 0.898229607 1.5319796351 2.9437398747
| 29> H 1.5683678071 -0.1260868144 2.9804166429
| 30> H 3.5934305255 0.6483376245 -2.3546570355
| 31> H 5.0475151008 1.1357670604 -1.4356848255
| 32> H 5.3799249104 -1.1069305398 -2.4508309098
| 33> H 5.3143439678 -1.2554624989 -0.6857316859
| 34> H 3.9116020951 -1.7024691627 -1.6623990701
| 35> H 0.5264002786 -2.445906193 -0.3173950957
| 36> H -0.722976881 -2.0038866096 -1.5420676459
| 37> H -1.3457757619 1.6828752134 1.514730726
| 38> H -0.301340448 2.7607240498 0.5451442162
| 39> H -2.0622893021 4.078334813 1.7137331665
| 40> H -2.311958167 4.1365932214 -0.0396094492
| 41> H -3.3216203047 3.0849316139 0.9598966248
| 42> H -5.4877264648 0.243541489 0.9445924159
| 43> H -5.1492155592 -0.3276730865 -0.7170666252
| 44> H -4.0341756923 -1.6496315563 1.8057467644
| 45> H -5.4538559202 -2.2247855707 0.9124046689
| 46> H -3.8627712921 -2.2267232211 0.1415946193
| 47> *
| 48>
| 49>                          ****END OF INPUT****

CARTESIAN COORDINATES (ANGSTROEM)
---------------------------------
  C      3.067349    1.430080    2.945428
  C      1.700966    0.886527    2.585620
  O      1.517075    0.850940    1.155575
  P      2.264158   -0.209618    0.242906
  S      2.696829   -1.891262    1.161666
  O      3.469468    0.671017   -0.298662
  C      4.228251    0.416766   -1.494484
  C      4.744105   -1.004935   -1.577214
  S      0.964768   -0.353319   -1.423075
  C     -0.094254   -1.647862   -0.726165
  S     -1.139163   -1.056458    0.625054
  P     -2.333048    0.252012   -0.574866
  S     -2.703406   -0.351167   -2.394864
  O     -1.576835    1.636299   -0.549277
  C     -1.315686    2.375293    0.668519
  C     -2.322464    3.494175    0.836567
  O     -3.602396    0.538097    0.338674
  C     -4.778526   -0.291884    0.311741
  C     -4.513099   -1.689937    0.830541
  H      3.157771    1.499268    4.024774
  H      3.837488    0.759482    2.565396
  H      3.210782    2.412223    2.503260
  H      0.898230    1.531980    2.943740
  H      1.568368   -0.126087    2.980417
  H      3.593431    0.648338   -2.354657
  H      5.047515    1.135767   -1.435685
  H      5.379925   -1.106931   -2.450831
  H      5.314344   -1.255462   -0.685732
  H      3.911602   -1.702469   -1.662399
  H      0.526400   -2.445906   -0.317395
  H     -0.722977   -2.003887   -1.542068
  H     -1.345776    1.682875    1.514731
  H     -0.301340    2.760724    0.545144
  H     -2.062289    4.078335    1.713733
  H     -2.311958    4.136593   -0.039609
  H     -3.321620    3.084932    0.959897
  H     -5.487726    0.243541    0.944592
  H     -5.149216   -0.327673   -0.717067
  H     -4.034176   -1.649632    1.805747
  H     -5.453856   -2.224786    0.912405
  H     -3.862771   -2.226723    0.141595

 Total Charge           Charge          ....    0
 Multiplicity           Mult            ....    1
 Number of Electrons    NEL             ....  202
 Basis Dimension        Dim             ....  334

ORBITAL ENERGIES
----------------

  NO   OCC          E(Eh)            E(eV)
   0   2.0000     -88.042914     -2395.7695
   1   2.0000     -88.040452     -2395.7025
   2   2.0000     -87.988875     -2394.2990
   3   2.0000     -87.986902     -2394.2453
   4   2.0000     -76.428441     -2079.7236
   5   2.0000     -76.426194     -2079.6625
   6   2.0000     -18.797351      -511.5019
   7   2.0000     -18.795417      -511.4493
   8   2.0000     -18.790650      -511.3196
   9   2.0000     -18.788416      -511.2588
  10   2.0000      -9.959778      -271.0193
  11   2.0000      -9.955761      -270.9100
  12   2.0000      -9.951964      -270.8067
  13   2.0000      -9.951961      -270.8066
  14   2.0000      -9.951734      -270.8004
  15   2.0000      -9.885381      -268.9949
  16   2.0000      -9.884936      -268.9828
  17   2.0000      -9.884478      -268.9703
  18   2.0000      -9.884406      -268.9684
  19   2.0000      -7.687958      -209.2000
  20   2.0000      -7.685236      -209.1259
  21   2.0000      -7.633800      -207.7263
  22   2.0000      -7.632207      -207.6829
  23   2.0000      -6.425789      -174.8546
  24   2.0000      -6.423674      -174.7971
  25   2.0000      -5.715698      -155.5321
  26   2.0000      -5.712970      -155.4578
  27   2.0000      -5.712560      -155.4467
  28   2.0000      -5.709900      -155.3743
  29   2.0000      -5.704976      -155.2403
  30   2.0000      -5.702235      -155.1657
  31   2.0000      -5.662620      -154.0877
  32   2.0000      -5.661155      -154.0479
  33   2.0000      -5.654519      -153.8673
  34   2.0000      -5.653978      -153.8526
  35   2.0000      -5.652699      -153.8178
  36   2.0000      -5.652422      -153.8102
  37   2.0000      -4.648278      -126.4861
  38   2.0000      -4.647686      -126.4700
  39   2.0000      -4.646611      -126.4407
  40   2.0000      -4.646225      -126.4302
  41   2.0000      -4.645309      -126.4053
  42   2.0000      -4.643943      -126.3681
  43   2.0000      -0.989055       -26.9135
  44   2.0000      -0.988407       -26.8959
  45   2.0000      -0.947279       -25.7768
  46   2.0000      -0.945066       -25.7166
  47   2.0000      -0.764419       -20.8009
  48   2.0000      -0.720919       -19.6172
  49   2.0000      -0.709895       -19.3172
  50   2.0000      -0.690994       -18.8029
  51   2.0000      -0.688882       -18.7454
  52   2.0000      -0.675902       -18.3922
  53   2.0000      -0.652489       -17.7551
  54   2.0000      -0.639622       -17.4050
  55   2.0000      -0.600652       -16.3446
  56   2.0000      -0.594245       -16.1702
  57   2.0000      -0.575208       -15.6522
  58   2.0000      -0.573881       -15.6161
  59   2.0000      -0.561683       -15.2842
  60   2.0000      -0.503073       -13.6893
  61   2.0000      -0.494071       -13.4444
  62   2.0000      -0.475273       -12.9328
  63   2.0000      -0.471447       -12.8287
  64   2.0000      -0.461361       -12.5543
  65   2.0000      -0.449438       -12.2298
  66   2.0000      -0.440252       -11.9799
  67   2.0000      -0.436340       -11.8734
  68   2.0000      -0.426901       -11.6166
  69   2.0000      -0.420999       -11.4560
  70   2.0000      -0.414535       -11.2801
  71   2.0000      -0.395625       -10.7655
  72   2.0000      -0.390993       -10.6395
  73   2.0000      -0.387567       -10.5462
  74   2.0000      -0.379941       -10.3387
  75   2.0000      -0.376637       -10.2488
  76   2.0000      -0.368646       -10.0314
  77   2.0000      -0.361218        -9.8292
  78   2.0000      -0.353313        -9.6141
  79   2.0000      -0.349975        -9.5233
  80   2.0000      -0.348320        -9.4783
  81   2.0000      -0.345203        -9.3935
  82   2.0000      -0.344192        -9.3659
  83   2.0000      -0.342085        -9.3086
  84   2.0000      -0.336940        -9.1686
  85   2.0000      -0.321726        -8.7546
  86   2.0000      -0.311933        -8.4881
  87   2.0000      -0.299568        -8.1517
  88   2.0000      -0.297054        -8.0832
  89   2.0000      -0.294277        -8.0077
  90   2.0000      -0.289150        -7.8682
  91   2.0000      -0.277609        -7.5541
  92   2.0000      -0.270200        -7.3525
  93   2.0000      -0.264474        -7.1967
  94   2.0000      -0.257192        -6.9985
  95   2.0000      -0.233176        -6.3450
  96   2.0000      -0.217699        -5.9239
  97   2.0000      -0.212638        -5.7862
  98   2.0000      -0.205043        -5.5795
  99   2.0000      -0.202066        -5.4985
 100   2.0000      -0.200478        -5.4553
 101   0.0000      -0.044630        -1.2144
 102   0.0000      -0.024278        -0.6606
 103   0.0000      -0.004671        -0.1271
 104   0.0000      -0.000713        -0.0194
 105   0.0000       0.011646         0.3169

MULLIKEN ATOMIC CHARGES
-----------------------
   0 C :   -0.299931
   1 C :   -0.011788
   2 O :   -0.358253
   3 P :    0.611259
   4 S :   -0.334874
   5 O :   -0.374272
   6 C :   -0.010961
   7 C :   -0.311698
   8 S :   -0.072326
   9 C :   -0.369052
  10 S :   -0.088607
  11 P :    0.601700
  12 S :   -0.314653
  13 O :   -0.348694
  14 C :   -0.023840
  15 C :   -0.281725
  16 O :   -0.383652
  17 C :   -0.000687
  18 C :   -0.316484
  19 H :    0.110859
  20 H :    0.124216
  21 H :    0.113764
  22 H :    0.100030
  23 H :    0.115402
  24 H :    0.117190
  25 H :    0.109746
  26 H :    0.112874
  27 H :    0.126102
  28 H :    0.126238
  29 H :    0.193030
  30 H :    0.193547
  31 H :    0.104583
  32 H :    0.118211
  33 H :    0.105813
  34 H :    0.119664
  35 H :    0.117556
  36 H :    0.104678
  37 H :    0.114231
  38 H :    0.117778
  39 H :    0.114260
  40 H :    0.128769
Sum of atomic charges:   -0.0000000

LOEWDIN ATOMIC CHARGES
----------------------
   0 C :   -0.363315
   1 C :   -0.120745
   2 O :   -0.237255
   3 P :    0.574356
   4 S :   -0.317950
   5 O :   -0.244363
   6 C :   -0.113149
   7 C :   -0.369959
   8 S :    0.092468
   9 C :   -0.486596
  10 S :    0.076566
  11 P :    0.572898
  12 S :   -0.309435
  13 O :   -0.231674
  14 C :   -0.115441
  15 C :   -0.358315
  16 O :   -0.248566
  17 C :   -0.116061
  18 C :   -0.370721
  19 H :    0.129930
  20 H :    0.123611
  21 H :    0.125102
  22 H :    0.112760
  23 H :    0.109727
  24 H :    0.111812
  25 H :    0.121762
  26 H :    0.130750
  27 H :    0.129251
  28 H :    0.121435
  29 H :    0.128361
  30 H :    0.128938
  31 H :    0.102658
  32 H :    0.120413
  33 H :    0.127642
  34 H :    0.128844
  35 H :    0.125051
  36 H :    0.118301
  37 H :    0.113717
  38 H :    0.123558
  39 H :    0.131726
  40 H :    0.121910

  Mayer bond orders larger than 0.100000
B(  0-C ,  1-C ) :   1.1646 B(  0-C , 19-H ) :   0.9395 B(  0-C , 20-H ) :   0.9352
B(  0-C , 21-H ) :   0.9469 B(  1-C ,  2-O ) :   0.9032 B(  1-C , 22-H ) :   0.9289
B(  1-C , 23-H ) :   0.9110 B(  2-O ,  3-P ) :   1.1148 B(  3-P ,  4-S ) :   1.5910
B(  3-P ,  5-O ) :   1.1138 B(  3-P ,  8-S ) :   0.9582 B(  4-S ,  8-S ) :   0.1099
B(  5-O ,  6-C ) :   0.9121 B(  6-C ,  7-C ) :   1.1645 B(  6-C , 24-H ) :   0.9284
B(  6-C , 25-H ) :   0.9343 B(  7-C , 26-H ) :   0.9348 B(  7-C , 27-H ) :   0.9425
B(  7-C , 28-H ) :   0.9330 B(  8-S ,  9-C ) :   1.0070 B(  9-C , 10-S ) :   1.0076
B(  9-C , 29-H ) :   0.8728 B(  9-C , 30-H ) :   0.8768 B( 10-S , 11-P ) :   0.9447
B( 10-S , 12-S ) :   0.1093 B( 11-P , 12-S ) :   1.6334 B( 11-P , 13-O ) :   1.1435
B( 11-P , 16-O ) :   1.0791 B( 13-O , 14-C ) :   0.8916 B( 14-C , 15-C ) :   1.1562
B( 14-C , 31-H ) :   0.9111 B( 14-C , 32-H ) :   0.9298 B( 15-C , 33-H ) :   0.9409
B( 15-C , 34-H ) :   0.9467 B( 15-C , 35-H ) :   0.9428 B( 16-O , 17-C ) :   0.9051
B( 17-C , 18-C ) :   1.1668 B( 17-C , 36-H ) :   0.9341 B( 17-C , 37-H ) :   0.9189
B( 18-C , 38-H ) :   0.9436 B( 18-C , 39-H ) :   0.9367 B( 18-C , 40-H ) :   0.9347

Dispersion correction           -0.066089897
FINAL SINGLE POINT ENERGY     -2929.521714575706

DIPOLE MOMENT
-------------

Method             : SCF
Type of density    : Electron Density
Multiplicity       :   1
Irrep              :   0
Energy             : -2929.6412896548681601 Eh
Relativity type    :
Basis              : AO
                                X                 Y                 Z
Electronic contribution:     -2.251858932      -7.654180662     -11.035295986
Nuclear contribution   :      2.308185072       8.476538564      11.951387975
                        -----------------------------------------
Total Dipole Moment    :      0.056326140       0.822357903       0.916091989
                        -----------------------------------------
Magnitude (a.u.)       :      1.232343169
Magnitude (Debye)      :      3.132367402

Rotational constants in cm-1:             0.012704             0.004921             0.004566
Rotational constants in MHz :           380.846937           147.525865           136.871121

                             ****ORCA TERMINATED NORMALLY****
TOTAL RUN TIME: 0 days 0 hours 0 minutes 21 seconds 111 msec
