                         Program Version 6.0.0  -   RELEASE  -
|  1> ! pbe def2-sv(p) def2/J RI DEFGRID1 loosescf d4 GCP(DFT/SV(P)) printgap
|  2> %output
|  3>     printlevel normal
|  4> end
|  5> * xyz 0 1
|  6> C 4.0461843266 0.0945239089 -2.4202991821
|  7> C 4.4886081963 -0.2531571781 -1.0128544852
|  8> O 3.3748620206 -0.5481479039 -0.1560412286
|  9> P 2.3582664645 0.5899131825 0.3212483609
| 10> S 3.1717769332 2.3325327856 0.6819402791
| 11> O 1.6354522933 -0.1207820131 1.5393335426
| 12> C 2.1260957286 -0.015687519 2.8916842073
| 13> C 3.4502441647 -0.7270136159 3.0710970943
| 14> S 0.7714625424 0.5373764227 -1.0785943094
| 15> C 0.3577526958 -1.2285138582 -0.941399541
| 16> S -0.7942242407 -1.6038196599 0.4091426387
| 17> P -2.5058490337 -0.6434952679 -0.374756105
| 18> S -2.4527232258 -0.2506085776 -2.3012179003
| 19> O -2.8488064888 0.6195246819 0.5396740033
| 20> C -2.3062306779 1.934547127 0.3413142509
| 21> C -1.2932419245 2.2538321504 1.4233438255
| 22> O -3.5627313129 -1.6918936547 0.1565293358
| 23> C -4.9552220356 -1.398294091 0.405338864
| 24> C -5.6851657232 -0.965077771 -0.8491850523
| 25> H 3.4362822631 -0.7020085115 -2.839256509
| 26> H 3.4618290407 1.014564217 -2.4089191647
| 27> H 4.9206149194 0.2422990088 -3.0458942043
| 28> H 5.0515922939 0.5774785365 -0.5751055706
| 29> H 5.0897629385 -1.1632405918 -0.9910129874
| 30> H 2.220337487 1.0455428343 3.1431226761
| 31> H 1.3355138348 -0.4736938859 3.4877399606
| 32> H 3.724191166 -0.7154716911 4.1214066959
| 33> H 3.3740899024 -1.7554404896 2.7280169174
| 34> H 4.224662804 -0.2182732739 2.4986343469
| 35> H 1.2615908926 -1.8014722889 -0.7524717595
| 36> H -0.1028046603 -1.4980455503 -1.8909413562
| 37> H -1.8601873757 1.9956697651 -0.657311618
| 38> H -3.1605458166 2.612473218 0.3955184826
| 39> H -0.9178351645 3.2619196285 1.2776108819
| 40> H -1.7555760388 2.1764556697 2.4032588627
| 41> H -0.4546630736 1.5611885274 1.379210949
| 42> H -5.3462669416 -2.3416918467 0.7901556862
| 43> H -5.0127981809 -0.6283024408 1.1776109731
| 44> H -5.2743769029 -0.0259379613 -1.2177036498
| 45> H -5.5758144091 -1.7156659572 -1.6284035315
| 46> H -6.7386325543 -0.8287421907 -0.6259088456
| 47> *
| 48>
| 49>                          ****END OF INPUT****

CARTESIAN COORDINATES (ANGSTROEM)
---------------------------------
  C      4.046184    0.094524   -2.420299
  C      4.488608   -0.253157   -1.012854
  O      3.374862   -0.548148   -0.156041
  P      2.358266    0.589913    0.321248
  S      3.171777    2.332533    0.681940
  O      1.635452   -0.120782    1.539334
  C      2.126096   -0.015688    2.891684
  C      3.450244   -0.727014    3.071097
  S      0.771463    0.537376   -1.078594
  C      0.357753   -1.228514   -0.941400
  S     -0.794224   -1.603820    0.409143
  P     -2.505849   -0.643495   -0.374756
  S     -2.452723   -0.250609   -2.301218
  O     -2.848806    0.619525    0.539674
  C     -2.306231    1.934547    0.341314
  C     -1.293242    2.253832    1.423344
  O     -3.562731   -1.691894    0.156529
  C     -4.955222   -1.398294    0.405339
  C     -5.685166   -0.965078   -0.849185
  H      3.436282   -0.702009   -2.839257
  H      3.461829    1.014564   -2.408919
  H      4.920615    0.242299   -3.045894
  H      5.051592    0.577479   -0.575106
  H      5.089763   -1.163241   -0.991013
  H      2.220337    1.045543    3.143123
  H      1.335514   -0.473694    3.487740
  H      3.724191   -0.715472    4.121407
  H      3.374090   -1.755440    2.728017
  H      4.224663   -0.218273    2.498634
  H      1.261591   -1.801472   -0.752472
  H     -0.102805   -1.498046   -1.890941
  H     -1.860187    1.995670   -0.657312
  H     -3.160546    2.612473    0.395518
  H     -0.917835    3.261920    1.277611
  H     -1.755576    2.176456    2.403259
  H     -0.454663    1.561189    1.379211
  H     -5.346267   -2.341692    0.790156
  H     -5.012798   -0.628302    1.177611
  H     -5.274377   -0.025938   -1.217704
  H     -5.575814   -1.715666   -1.628404
  H     -6.738633   -0.828742   -0.625909

 Total Charge           Charge          ....    0
 Multiplicity           Mult            ....    1
 Number of Electrons    NEL             ....  202
 Basis Dimension        Dim             ....  334

ORBITAL ENERGIES
----------------

  NO   OCC          E(Eh)            E(eV)
   0   2.0000     -88.043807     -2395.7938
   1   2.0000     -88.039526     -2395.6773
   2   2.0000     -87.991762     -2394.3776
   3   2.0000     -87.988022     -2394.2758
   4   2.0000     -76.428672     -2079.7299
   5   2.0000     -76.427068     -2079.6862
   6   2.0000     -18.796669      -511.4834
   7   2.0000     -18.794582      -511.4266
   8   2.0000     -18.791614      -511.3458
   9   2.0000     -18.791033      -511.3300
  10   2.0000      -9.955991      -270.9163
  11   2.0000      -9.955368      -270.8993
  12   2.0000      -9.954876      -270.8860
  13   2.0000      -9.954749      -270.8825
  14   2.0000      -9.946188      -270.6495
  15   2.0000      -9.887117      -269.0421
  16   2.0000      -9.885695      -269.0034
  17   2.0000      -9.883907      -268.9548
  18   2.0000      -9.875374      -268.7226
  19   2.0000      -7.688330      -209.2101
  20   2.0000      -7.684841      -209.1152
  21   2.0000      -7.636901      -207.8106
  22   2.0000      -7.632987      -207.7041
  23   2.0000      -6.426174      -174.8651
  24   2.0000      -6.424316      -174.8145
  25   2.0000      -5.716591      -155.5564
  26   2.0000      -5.712778      -155.4526
  27   2.0000      -5.712703      -155.4505
  28   2.0000      -5.709372      -155.3599
  29   2.0000      -5.705136      -155.2446
  30   2.0000      -5.701696      -155.1510
  31   2.0000      -5.665774      -154.1736
  32   2.0000      -5.661782      -154.0649
  33   2.0000      -5.657560      -153.9500
  34   2.0000      -5.657085      -153.9371
  35   2.0000      -5.653744      -153.8462
  36   2.0000      -5.653157      -153.8302
  37   2.0000      -4.648574      -126.4941
  38   2.0000      -4.648161      -126.4829
  39   2.0000      -4.647101      -126.4540
  40   2.0000      -4.646587      -126.4400
  41   2.0000      -4.645939      -126.4224
  42   2.0000      -4.644787      -126.3911
  43   2.0000      -0.990402       -26.9502
  44   2.0000      -0.986793       -26.8520
  45   2.0000      -0.949697       -25.8426
  46   2.0000      -0.942239       -25.6396
  47   2.0000      -0.763407       -20.7734
  48   2.0000      -0.723814       -19.6960
  49   2.0000      -0.707864       -19.2620
  50   2.0000      -0.689568       -18.7641
  51   2.0000      -0.685577       -18.6555
  52   2.0000      -0.674083       -18.3427
  53   2.0000      -0.654997       -17.8234
  54   2.0000      -0.639166       -17.3926
  55   2.0000      -0.601838       -16.3769
  56   2.0000      -0.593447       -16.1485
  57   2.0000      -0.575380       -15.6569
  58   2.0000      -0.572576       -15.5806
  59   2.0000      -0.560785       -15.2597
  60   2.0000      -0.499438       -13.5904
  61   2.0000      -0.495003       -13.4697
  62   2.0000      -0.476446       -12.9648
  63   2.0000      -0.473354       -12.8806
  64   2.0000      -0.463291       -12.6068
  65   2.0000      -0.447373       -12.1736
  66   2.0000      -0.443274       -12.0621
  67   2.0000      -0.429564       -11.6890
  68   2.0000      -0.424337       -11.5468
  69   2.0000      -0.415029       -11.2935
  70   2.0000      -0.413794       -11.2599
  71   2.0000      -0.399789       -10.8788
  72   2.0000      -0.397505       -10.8167
  73   2.0000      -0.391137       -10.6434
  74   2.0000      -0.381783       -10.3888
  75   2.0000      -0.373464       -10.1625
  76   2.0000      -0.365278        -9.9397
  77   2.0000      -0.357862        -9.7379
  78   2.0000      -0.351383        -9.5616
  79   2.0000      -0.349845        -9.5198
  80   2.0000      -0.348665        -9.4877
  81   2.0000      -0.345587        -9.4039
  82   2.0000      -0.338945        -9.2232
  83   2.0000      -0.334797        -9.1103
  84   2.0000      -0.331061        -9.0086
  85   2.0000      -0.325577        -8.8594
  86   2.0000      -0.316696        -8.6177
  87   2.0000      -0.297748        -8.1021
  88   2.0000      -0.294354        -8.0098
  89   2.0000      -0.292072        -7.9477
  90   2.0000      -0.288506        -7.8507
  91   2.0000      -0.277012        -7.5379
  92   2.0000      -0.273897        -7.4531
  93   2.0000      -0.267202        -7.2709
  94   2.0000      -0.258078        -7.0227
  95   2.0000      -0.232060        -6.3147
  96   2.0000      -0.217590        -5.9209
  97   2.0000      -0.210871        -5.7381
  98   2.0000      -0.208118        -5.6632
  99   2.0000      -0.205048        -5.5796
 100   2.0000      -0.200813        -5.4644
 101   0.0000      -0.040615        -1.1052
 102   0.0000      -0.027323        -0.7435
 103   0.0000      -0.011438        -0.3112
 104   0.0000       0.004921         0.1339
 105   0.0000       0.009103         0.2477

MULLIKEN ATOMIC CHARGES
-----------------------
   0 C :   -0.309826
   1 C :   -0.009131
   2 O :   -0.380130
   3 P :    0.596177
   4 S :   -0.319157
   5 O :   -0.372862
   6 C :   -0.005547
   7 C :   -0.304079
   8 S :   -0.058565
   9 C :   -0.359347
  10 S :   -0.069395
  11 P :    0.629563
  12 S :   -0.329284
  13 O :   -0.384476
  14 C :   -0.008632
  15 C :   -0.307976
  16 O :   -0.375963
  17 C :    0.001003
  18 C :   -0.315696
  19 H :    0.114940
  20 H :    0.128857
  21 H :    0.113837
  22 H :    0.112374
  23 H :    0.105213
  24 H :    0.112870
  25 H :    0.108420
  26 H :    0.113516
  27 H :    0.116774
  28 H :    0.122971
  29 H :    0.184356
  30 H :    0.197786
  31 H :    0.114061
  32 H :    0.099548
  33 H :    0.112010
  34 H :    0.104082
  35 H :    0.138791
  36 H :    0.108046
  37 H :    0.109979
  38 H :    0.129615
  39 H :    0.124804
  40 H :    0.110471
Sum of atomic charges:    0.0000000

LOEWDIN ATOMIC CHARGES
----------------------
   0 C :   -0.366790
   1 C :   -0.122342
   2 O :   -0.249009
   3 P :    0.566294
   4 S :   -0.319232
   5 O :   -0.240594
   6 C :   -0.115388
   7 C :   -0.364608
   8 S :    0.108136
   9 C :   -0.481519
  10 S :    0.094899
  11 P :    0.567875
  12 S :   -0.314292
  13 O :   -0.248520
  14 C :   -0.120182
  15 C :   -0.364070
  16 O :   -0.244397
  17 C :   -0.109437
  18 C :   -0.366410
  19 H :    0.124028
  20 H :    0.122473
  21 H :    0.131476
  22 H :    0.110011
  23 H :    0.118143
  24 H :    0.112166
  25 H :    0.120291
  26 H :    0.131284
  27 H :    0.126495
  28 H :    0.122854
  29 H :    0.132150
  30 H :    0.132329
  31 H :    0.104996
  32 H :    0.114577
  33 H :    0.131379
  34 H :    0.121295
  35 H :    0.116493
  36 H :    0.120941
  37 H :    0.113489
  38 H :    0.123001
  39 H :    0.130234
  40 H :    0.129482

  Mayer bond orders larger than 0.100000
B(  0-C ,  1-C ) :   1.1645 B(  0-C , 19-H ) :   0.9467 B(  0-C , 20-H ) :   0.9353
B(  0-C , 21-H ) :   0.9384 B(  1-C ,  2-O ) :   0.9095 B(  1-C , 22-H ) :   0.9139
B(  1-C , 23-H ) :   0.9338 B(  2-O ,  3-P ) :   1.0604 B(  3-P ,  4-S ) :   1.6377
B(  3-P ,  5-O ) :   1.0936 B(  3-P ,  8-S ) :   0.9743 B(  5-O ,  6-C ) :   0.8987
B(  6-C ,  7-C ) :   1.1695 B(  6-C , 24-H ) :   0.9186 B(  6-C , 25-H ) :   0.9329
B(  7-C , 26-H ) :   0.9385 B(  7-C , 27-H ) :   0.9457 B(  7-C , 28-H ) :   0.9371
B(  8-S ,  9-C ) :   0.9759 B(  9-C , 10-S ) :   1.0061 B(  9-C , 29-H ) :   0.8904
B(  9-C , 30-H ) :   0.8789 B( 10-S , 11-P ) :   0.9643 B( 10-S , 12-S ) :   0.1195
B( 11-P , 12-S ) :   1.6132 B( 11-P , 13-O ) :   1.0816 B( 11-P , 16-O ) :   1.1326
B( 13-O , 14-C ) :   0.9029 B( 14-C , 15-C ) :   1.1661 B( 14-C , 31-H ) :   0.9036
B( 14-C , 32-H ) :   0.9344 B( 15-C , 33-H ) :   0.9397 B( 15-C , 34-H ) :   0.9462
B( 15-C , 35-H ) :   0.9273 B( 16-O , 17-C ) :   0.9066 B( 17-C , 18-C ) :   1.1664
B( 17-C , 36-H ) :   0.9350 B( 17-C , 37-H ) :   0.9283 B( 18-C , 38-H ) :   0.9360
B( 18-C , 39-H ) :   0.9455 B( 18-C , 40-H ) :   0.9362

Dispersion correction           -0.065274295
FINAL SINGLE POINT ENERGY     -2929.524266397093

DIPOLE MOMENT
-------------

Method             : SCF
Type of density    : Electron Density
Multiplicity       :   1
Irrep              :   0
Energy             : -2929.6449059646729438 Eh
Relativity type    :
Basis              : AO
                                X                 Y                 Z
Electronic contribution:     -1.876745469      -1.211288903      -5.677713641
Nuclear contribution   :      1.874390769       0.573987337       6.495679661
                        -----------------------------------------
Total Dipole Moment    :     -0.002354700      -0.637301566       0.817966020
                        -----------------------------------------
Magnitude (a.u.)       :      1.036931647
Magnitude (Debye)      :      2.635670787

Rotational constants in cm-1:             0.014361             0.004425             0.004197
Rotational constants in MHz :           430.525146           132.646921           125.824065

                             ****ORCA TERMINATED NORMALLY****
TOTAL RUN TIME: 0 days 0 hours 0 minutes 20 seconds 768 msec
