                         Program Version 6.0.0  -   RELEASE  -
|  1> ! pbe def2-sv(p) def2/J RI DEFGRID1 loosescf d4 GCP(DFT/SV(P)) printgap
|  2> %output
|  3>     printlevel normal
|  4> end
|  5> * xyz 0 1
|  6> C -0.5167389954 -0.0003212992 -0.5533712145
|  7> C 0.5167348929 0.0003402195 0.5533559201
|  8> Cl 2.1533690226 -0.0002201265 -0.1815052011
|  9> Cl -2.1533686177 0.0002149701 0.1815098044
| 10> H -0.4443550878 -0.8947834004 -1.1697782746
| 11> H -0.4442940293 0.8932152779 -1.1709945975
| 12> H 0.4444072112 0.8947485288 1.1698035046
| 13> H 0.4442765508 -0.8932244944 1.1709896996
| 14> *
| 15>
| 16>                          ****END OF INPUT****

CARTESIAN COORDINATES (ANGSTROEM)
---------------------------------
  C     -0.516739   -0.000321   -0.553371
  C      0.516735    0.000340    0.553356
  Cl     2.153369   -0.000220   -0.181505
  Cl    -2.153369    0.000215    0.181510
  H     -0.444355   -0.894783   -1.169778
  H     -0.444294    0.893215   -1.170995
  H      0.444407    0.894749    1.169804
  H      0.444277   -0.893224    1.170990

 Total Charge           Charge          ....    0
 Multiplicity           Mult            ....    1
 Number of Electrons    NEL             ....   50
 Basis Dimension        Dim             ....   72

ORBITAL ENERGIES
----------------

  NO   OCC          E(Eh)            E(eV)
   0   2.0000    -100.633004     -2738.3632
   1   2.0000    -100.632980     -2738.3626
   2   2.0000      -9.957132      -270.9473
   3   2.0000      -9.957101      -270.9465
   4   2.0000      -9.168700      -249.4930
   5   2.0000      -9.168688      -249.4927
   6   2.0000      -7.000420      -190.4911
   7   2.0000      -7.000412      -190.4909
   8   2.0000      -6.988455      -190.1655
   9   2.0000      -6.988450      -190.1654
  10   2.0000      -6.988068      -190.1550
  11   2.0000      -6.988066      -190.1549
  12   2.0000      -0.806390       -21.9430
  13   2.0000      -0.767584       -20.8870
  14   2.0000      -0.648410       -17.6441
  15   2.0000      -0.562570       -15.3083
  16   2.0000      -0.456198       -12.4138
  17   2.0000      -0.415061       -11.2944
  18   2.0000      -0.401122       -10.9151
  19   2.0000      -0.368506       -10.0275
  20   2.0000      -0.354093        -9.6353
  21   2.0000      -0.270868        -7.3707
  22   2.0000      -0.260527        -7.0893
  23   2.0000      -0.256898        -6.9905
  24   2.0000      -0.256198        -6.9715
  25   0.0000      -0.017004        -0.4627
  26   0.0000       0.011477         0.3123
  27   0.0000       0.062623         1.7041
  28   0.0000       0.069948         1.9034
  29   0.0000       0.074058         2.0152

MULLIKEN ATOMIC CHARGES
-----------------------
   0 C :   -0.160962
   1 C :   -0.160977
   2 Cl:   -0.140807
   3 Cl:   -0.140805
   4 H :    0.150890
   5 H :    0.150886
   6 H :    0.150888
   7 H :    0.150887
Sum of atomic charges:   -0.0000000

LOEWDIN ATOMIC CHARGES
----------------------
   0 C :   -0.297973
   1 C :   -0.297977
   2 Cl:    0.036590
   3 Cl:    0.036590
   4 H :    0.130694
   5 H :    0.130693
   6 H :    0.130692
   7 H :    0.130693

  Mayer bond orders larger than 0.100000
B(  0-C ,  1-C ) :   1.0835 B(  0-C ,  3-Cl) :   1.0252 B(  0-C ,  4-H ) :   0.9244
B(  0-C ,  5-H ) :   0.9244 B(  1-C ,  2-Cl) :   1.0252 B(  1-C ,  6-H ) :   0.9244
B(  1-C ,  7-H ) :   0.9244

Dispersion correction           -0.005950434
FINAL SINGLE POINT ENERGY      -998.147789122308

DIPOLE MOMENT
-------------

Method             : SCF
Type of density    : Electron Density
Multiplicity       :   1
Irrep              :   0
Energy             :  -998.1738846514676879 Eh
Relativity type    :
Basis              : AO
                                X                 Y                 Z
Electronic contribution:     -0.000035345       0.000040664      -0.000011004
Nuclear contribution   :      0.000031960      -0.000034441       0.000012897
                        -----------------------------------------
Total Dipole Moment    :     -0.000003386       0.000006223       0.000001892
                        -----------------------------------------
Magnitude (a.u.)       :      0.000007332
Magnitude (Debye)      :      0.000018638

Rotational constants in cm-1:             0.971881             0.049535             0.047998
Rotational constants in MHz :         29136.251817          1485.031230          1438.941382

                             ****ORCA TERMINATED NORMALLY****
TOTAL RUN TIME: 0 days 0 hours 0 minutes 6 seconds 530 msec
