                         Program Version 6.0.0  -   RELEASE  -
|  1> ! pbe def2-sv(p) def2/J RI DEFGRID1 loosescf d4 GCP(DFT/SV(P)) printgap
|  2> %output
|  3>     printlevel normal
|  4> end
|  5> * xyz 0 1
|  6> C 5.1123069784 -1.0204583515 -2.3438452612
|  7> C 3.6929863841 -1.3160640288 -1.9024986452
|  8> O 3.4524957738 -0.6071505404 -0.6706262037
|  9> P 1.9880025004 -0.2545298057 -0.169250925
| 10> S 0.8411832248 0.509278011 -1.5715200516
| 11> O 2.2624365312 0.6455268529 1.0999596128
| 12> C 2.39463502 2.0781880476 1.0195874698
| 13> C 3.6434936443 2.4846433759 0.2684628082
| 14> S 1.4176700391 -2.0577313326 0.7517091994
| 15> C -0.2141018628 -1.6241678964 1.4180862284
| 16> S -1.5357324201 -1.5649056681 0.1698603975
| 17> P -2.1363897046 0.4771997848 0.3521083822
| 18> S -1.0771327225 1.6021733665 1.5494588078
| 19> O -3.6854702319 0.394172927 0.7352816356
| 20> C -4.1731462098 0.3024731321 2.0836322214
| 21> C -3.7826285137 -0.9971892951 2.7581233174
| 22> O -2.2386177529 1.0368252443 -1.1104931935
| 23> C -2.9566544428 0.3560722807 -2.1723425347
| 24> C -2.4571996351 0.9102759323 -3.4892708884
| 25> H 5.8093663395 -1.3148154165 -1.5647980104
| 26> H 5.3261072043 -1.5790350975 -3.2490850183
| 27> H 5.2322043869 0.0411294292 -2.5411752915
| 28> H 3.5483842139 -2.3827051146 -1.7123989617
| 29> H 2.9616424611 -0.981138077 -2.6462240492
| 30> H 1.4975631291 2.4847482282 0.5407133725
| 31> H 2.4176832909 2.3946172147 2.0632429643
| 32> H 4.5144335211 2.0003111399 0.7019427192
| 33> H 3.5571631592 2.1889112316 -0.7765031436
| 34> H 3.7600445739 3.5624853489 0.3226589818
| 35> H -0.154044283 -0.6527045101 1.9169521705
| 36> H -0.4546927302 -2.4214153508 2.1165286454
| 37> H -3.790333533 1.1593675583 2.6468172179
| 38> H -5.2550330155 0.387165494 1.971042993
| 39> H -4.0469416042 -1.8441293984 2.1300572453
| 40> H -2.7099170191 -1.0123983517 2.9441643468
| 41> H -4.3030231052 -1.0755385728 3.7072638835
| 42> H -2.7602014433 -0.7172594123 -2.0923132251
| 43> H -4.0221918205 0.5437830106 -2.0257072721
| 44> H -2.9579703775 0.4006467655 -4.3056862615
| 45> H -2.6574532154 1.9761747381 -3.5462722554
| 46> H -1.3834688636 0.7552673475 -3.5673821939
| 47> *
| 48>
| 49>                          ****END OF INPUT****

CARTESIAN COORDINATES (ANGSTROEM)
---------------------------------
  C      5.112307   -1.020458   -2.343845
  C      3.692986   -1.316064   -1.902499
  O      3.452496   -0.607151   -0.670626
  P      1.988003   -0.254530   -0.169251
  S      0.841183    0.509278   -1.571520
  O      2.262437    0.645527    1.099960
  C      2.394635    2.078188    1.019587
  C      3.643494    2.484643    0.268463
  S      1.417670   -2.057731    0.751709
  C     -0.214102   -1.624168    1.418086
  S     -1.535732   -1.564906    0.169860
  P     -2.136390    0.477200    0.352108
  S     -1.077133    1.602173    1.549459
  O     -3.685470    0.394173    0.735282
  C     -4.173146    0.302473    2.083632
  C     -3.782629   -0.997189    2.758123
  O     -2.238618    1.036825   -1.110493
  C     -2.956654    0.356072   -2.172343
  C     -2.457200    0.910276   -3.489271
  H      5.809366   -1.314815   -1.564798
  H      5.326107   -1.579035   -3.249085
  H      5.232204    0.041129   -2.541175
  H      3.548384   -2.382705   -1.712399
  H      2.961642   -0.981138   -2.646224
  H      1.497563    2.484748    0.540713
  H      2.417683    2.394617    2.063243
  H      4.514434    2.000311    0.701943
  H      3.557163    2.188911   -0.776503
  H      3.760045    3.562485    0.322659
  H     -0.154044   -0.652705    1.916952
  H     -0.454693   -2.421415    2.116529
  H     -3.790334    1.159368    2.646817
  H     -5.255033    0.387165    1.971043
  H     -4.046942   -1.844129    2.130057
  H     -2.709917   -1.012398    2.944164
  H     -4.303023   -1.075539    3.707264
  H     -2.760201   -0.717259   -2.092313
  H     -4.022192    0.543783   -2.025707
  H     -2.957970    0.400647   -4.305686
  H     -2.657453    1.976175   -3.546272
  H     -1.383469    0.755267   -3.567382

 Total Charge           Charge          ....    0
 Multiplicity           Mult            ....    1
 Number of Electrons    NEL             ....  202
 Basis Dimension        Dim             ....  334

ORBITAL ENERGIES
----------------

  NO   OCC          E(Eh)            E(eV)
   0   2.0000     -88.038207     -2395.6414
   1   2.0000     -88.037473     -2395.6214
   2   2.0000     -87.986234     -2394.2271
   3   2.0000     -87.978380     -2394.0134
   4   2.0000     -76.423284     -2079.5833
   5   2.0000     -76.419208     -2079.4724
   6   2.0000     -18.787074      -511.2223
   7   2.0000     -18.787018      -511.2208
   8   2.0000     -18.784153      -511.1428
   9   2.0000     -18.783233      -511.1177
  10   2.0000      -9.954346      -270.8715
  11   2.0000      -9.953768      -270.8558
  12   2.0000      -9.950654      -270.7711
  13   2.0000      -9.949674      -270.7444
  14   2.0000      -9.940022      -270.4818
  15   2.0000      -9.886355      -269.0214
  16   2.0000      -9.885104      -268.9874
  17   2.0000      -9.882327      -268.9118
  18   2.0000      -9.876316      -268.7482
  19   2.0000      -7.683318      -209.0737
  20   2.0000      -7.683030      -209.0659
  21   2.0000      -7.631227      -207.6562
  22   2.0000      -7.622974      -207.4317
  23   2.0000      -6.420659      -174.7150
  24   2.0000      -6.416965      -174.6145
  25   2.0000      -5.711155      -155.4084
  26   2.0000      -5.710922      -155.4021
  27   2.0000      -5.707788      -155.3168
  28   2.0000      -5.707637      -155.3127
  29   2.0000      -5.700236      -155.1113
  30   2.0000      -5.699935      -155.1031
  31   2.0000      -5.660096      -154.0190
  32   2.0000      -5.652032      -153.7996
  33   2.0000      -5.651726      -153.7913
  34   2.0000      -5.651169      -153.7761
  35   2.0000      -5.643580      -153.5696
  36   2.0000      -5.643366      -153.5638
  37   2.0000      -4.643314      -126.3510
  38   2.0000      -4.642236      -126.3217
  39   2.0000      -4.641271      -126.2954
  40   2.0000      -4.639437      -126.2455
  41   2.0000      -4.638815      -126.2286
  42   2.0000      -4.637389      -126.1898
  43   2.0000      -0.983386       -26.7593
  44   2.0000      -0.980994       -26.6942
  45   2.0000      -0.940402       -25.5896
  46   2.0000      -0.938419       -25.5357
  47   2.0000      -0.757801       -20.6208
  48   2.0000      -0.718778       -19.5590
  49   2.0000      -0.708030       -19.2665
  50   2.0000      -0.686535       -18.6816
  51   2.0000      -0.683861       -18.6088
  52   2.0000      -0.670872       -18.2554
  53   2.0000      -0.647444       -17.6178
  54   2.0000      -0.632679       -17.2161
  55   2.0000      -0.594912       -16.1884
  56   2.0000      -0.586749       -15.9662
  57   2.0000      -0.569024       -15.4839
  58   2.0000      -0.563393       -15.3307
  59   2.0000      -0.559555       -15.2263
  60   2.0000      -0.504846       -13.7375
  61   2.0000      -0.496897       -13.5213
  62   2.0000      -0.470822       -12.8117
  63   2.0000      -0.469633       -12.7794
  64   2.0000      -0.451934       -12.2977
  65   2.0000      -0.443888       -12.0788
  66   2.0000      -0.436106       -11.8670
  67   2.0000      -0.433288       -11.7904
  68   2.0000      -0.426250       -11.5988
  69   2.0000      -0.417040       -11.3482
  70   2.0000      -0.405227       -11.0268
  71   2.0000      -0.391681       -10.6582
  72   2.0000      -0.389524       -10.5995
  73   2.0000      -0.386124       -10.5070
  74   2.0000      -0.375873       -10.2280
  75   2.0000      -0.369437       -10.0529
  76   2.0000      -0.360830        -9.8187
  77   2.0000      -0.354183        -9.6378
  78   2.0000      -0.352681        -9.5969
  79   2.0000      -0.349763        -9.5175
  80   2.0000      -0.343248        -9.3403
  81   2.0000      -0.340411        -9.2631
  82   2.0000      -0.337079        -9.1724
  83   2.0000      -0.335429        -9.1275
  84   2.0000      -0.327573        -8.9137
  85   2.0000      -0.312922        -8.5150
  86   2.0000      -0.310306        -8.4439
  87   2.0000      -0.297043        -8.0830
  88   2.0000      -0.295335        -8.0365
  89   2.0000      -0.292399        -7.9566
  90   2.0000      -0.278163        -7.5692
  91   2.0000      -0.267050        -7.2668
  92   2.0000      -0.264972        -7.2102
  93   2.0000      -0.260081        -7.0772
  94   2.0000      -0.254815        -6.9339
  95   2.0000      -0.236401        -6.4328
  96   2.0000      -0.218253        -5.9390
  97   2.0000      -0.206785        -5.6269
  98   2.0000      -0.202296        -5.5048
  99   2.0000      -0.190164        -5.1746
 100   2.0000      -0.187606        -5.1050
 101   0.0000      -0.036526        -0.9939
 102   0.0000      -0.029505        -0.8029
 103   0.0000      -0.010249        -0.2789
 104   0.0000       0.005314         0.1446
 105   0.0000       0.018864         0.5133

MULLIKEN ATOMIC CHARGES
-----------------------
   0 C :   -0.283870
   1 C :   -0.010017
   2 O :   -0.378503
   3 P :    0.620806
   4 S :   -0.331475
   5 O :   -0.364275
   6 C :   -0.011065
   7 C :   -0.305584
   8 S :   -0.090701
   9 C :   -0.358913
  10 S :   -0.105890
  11 P :    0.615288
  12 S :   -0.306336
  13 O :   -0.386625
  14 C :    0.006113
  15 C :   -0.321718
  16 O :   -0.350763
  17 C :   -0.016659
  18 C :   -0.286279
  19 H :    0.117236
  20 H :    0.110955
  21 H :    0.120802
  22 H :    0.102172
  23 H :    0.103580
  24 H :    0.129529
  25 H :    0.102453
  26 H :    0.113731
  27 H :    0.121569
  28 H :    0.110202
  29 H :    0.200414
  30 H :    0.183705
  31 H :    0.109442
  32 H :    0.102670
  33 H :    0.120030
  34 H :    0.122337
  35 H :    0.111933
  36 H :    0.111207
  37 H :    0.108115
  38 H :    0.107729
  39 H :    0.119511
  40 H :    0.137144
Sum of atomic charges:    0.0000000

LOEWDIN ATOMIC CHARGES
----------------------
   0 C :   -0.350927
   1 C :   -0.120955
   2 O :   -0.247920
   3 P :    0.564617
   4 S :   -0.317943
   5 O :   -0.235011
   6 C :   -0.120388
   7 C :   -0.365940
   8 S :    0.077857
   9 C :   -0.481920
  10 S :    0.067260
  11 P :    0.575496
  12 S :   -0.290311
  13 O :   -0.256257
  14 C :   -0.115914
  15 C :   -0.370385
  16 O :   -0.227228
  17 C :   -0.111201
  18 C :   -0.351454
  19 H :    0.127145
  20 H :    0.130363
  21 H :    0.128066
  22 H :    0.110543
  23 H :    0.106404
  24 H :    0.111317
  25 H :    0.118275
  26 H :    0.124608
  27 H :    0.120816
  28 H :    0.129776
  29 H :    0.122732
  30 H :    0.136007
  31 H :    0.110713
  32 H :    0.117952
  33 H :    0.124511
  34 H :    0.119406
  35 H :    0.130123
  36 H :    0.106523
  37 H :    0.114636
  38 H :    0.129010
  39 H :    0.129215
  40 H :    0.130386

  Mayer bond orders larger than 0.100000
B(  0-C ,  1-C ) :   1.1603 B(  0-C , 19-H ) :   0.9503 B(  0-C , 20-H ) :   0.9419
B(  0-C , 21-H ) :   0.9514 B(  1-C ,  2-O ) :   0.9065 B(  1-C , 22-H ) :   0.9309
B(  1-C , 23-H ) :   0.9045 B(  2-O ,  3-P ) :   1.0955 B(  3-P ,  4-S ) :   1.6235
B(  3-P ,  5-O ) :   1.1382 B(  3-P ,  8-S ) :   0.9706 B(  4-S ,  8-S ) :   0.1151
B(  5-O ,  6-C ) :   0.8968 B(  6-C ,  7-C ) :   1.1612 B(  6-C , 24-H ) :   0.9083
B(  6-C , 25-H ) :   0.9362 B(  7-C , 26-H ) :   0.9451 B(  7-C , 27-H ) :   0.9355
B(  7-C , 28-H ) :   0.9389 B(  8-S ,  9-C ) :   0.9996 B(  9-C , 10-S ) :   1.0039
B(  9-C , 29-H ) :   0.8456 B(  9-C , 30-H ) :   0.9083 B( 10-S , 11-P ) :   0.9494
B( 10-S , 12-S ) :   0.1139 B( 11-P , 12-S ) :   1.6109 B( 11-P , 13-O ) :   1.0699
B( 11-P , 16-O ) :   1.1512 B( 12-S , 29-H ) :   0.1122 B( 13-O , 14-C ) :   0.9227
B( 14-C , 15-C ) :   1.1634 B( 14-C , 31-H ) :   0.9187 B( 14-C , 32-H ) :   0.9349
B( 15-C , 33-H ) :   0.9413 B( 15-C , 34-H ) :   0.9384 B( 15-C , 35-H ) :   0.9369
B( 16-O , 17-C ) :   0.8900 B( 17-C , 18-C ) :   1.1650 B( 17-C , 36-H ) :   0.9143
B( 17-C , 37-H ) :   0.9293 B( 18-C , 38-H ) :   0.9402 B( 18-C , 39-H ) :   0.9497
B( 18-C , 40-H ) :   0.9431

Dispersion correction           -0.065995568
FINAL SINGLE POINT ENERGY     -2929.518713305028

DIPOLE MOMENT
-------------

Method             : SCF
Type of density    : Electron Density
Multiplicity       :   1
Irrep              :   0
Energy             : -2929.6369463154228470 Eh
Relativity type    :
Basis              : AO
                                X                 Y                 Z
Electronic contribution:     -4.316813084      -4.108515020       6.591280557
Nuclear contribution   :      4.013747466       3.538055035      -6.724076821
                        -----------------------------------------
Total Dipole Moment    :     -0.303065618      -0.570459985      -0.132796264
                        -----------------------------------------
Magnitude (a.u.)       :      0.659475709
Magnitude (Debye)      :      1.676254039

Rotational constants in cm-1:             0.012114             0.005104             0.004860
Rotational constants in MHz :           363.168511           153.021330           145.701221

                             ****ORCA TERMINATED NORMALLY****
TOTAL RUN TIME: 0 days 0 hours 0 minutes 20 seconds 889 msec
