                         Program Version 6.0.0  -   RELEASE  -
|  1> ! r2scan-3c def2/J RI DEFGRID2 scfconv6 printgap
|  2> %output
|  3>     printlevel normal
|  4> end
|  5> * xyz 0 1
|  6> C -1.4836820793 -0.0001556942 0.1077702547
|  7> C -0.0555369454 2.8121e-06 -0.3733876836
|  8> F 0.6300207628 -1.0845550192 0.1051523188
|  9> F 0.6298016273 1.0846565143 0.1051881067
| 10> H -1.9832661988 -0.8884948705 -0.2643837391
| 11> H -1.5023830677 -1.89547e-05 1.1946014018
| 12> H -1.9832324259 0.8882652178 -0.2649781736
| 13> H 0.0643373483 0.0001573136 -1.4647620961
| 14> *
| 15>
| 16>                          ****END OF INPUT****

CARTESIAN COORDINATES (ANGSTROEM)
---------------------------------
  C     -1.483682   -0.000156    0.107770
  C     -0.055537    0.000003   -0.373388
  F      0.630021   -1.084555    0.105152
  F      0.629802    1.084657    0.105188
  H     -1.983266   -0.888495   -0.264384
  H     -1.502383   -0.000019    1.194601
  H     -1.983232    0.888265   -0.264978
  H      0.064337    0.000157   -1.464762

 Total Charge           Charge          ....    0
 Multiplicity           Mult            ....    1
 Number of Electrons    NEL             ....   34
 Basis Dimension        Dim             ....  106

ORBITAL ENERGIES
----------------

  NO   OCC          E(Eh)            E(eV)
   0   2.0000     -24.486992      -666.3249
   1   2.0000     -24.486986      -666.3248
   2   2.0000     -10.193137      -277.3693
   3   2.0000     -10.045703      -273.3575
   4   2.0000      -1.206511       -32.8308
   5   2.0000      -1.146669       -31.2025
   6   2.0000      -0.744292       -20.2532
   7   2.0000      -0.615474       -16.7479
   8   2.0000      -0.513149       -13.9635
   9   2.0000      -0.505720       -13.7613
  10   2.0000      -0.465685       -12.6719
  11   2.0000      -0.400631       -10.9017
  12   2.0000      -0.389122       -10.5886
  13   2.0000      -0.367677       -10.0050
  14   2.0000      -0.363803        -9.8996
  15   2.0000      -0.346564        -9.4305
  16   2.0000      -0.304353        -8.2819
  17   0.0000       0.082341         2.2406
  18   0.0000       0.092168         2.5080
  19   0.0000       0.110566         3.0087
  20   0.0000       0.128719         3.5026
  21   0.0000       0.155538         4.2324

MULLIKEN ATOMIC CHARGES
-----------------------
   0 C :   -0.441358
   1 C :    0.345550
   2 F :   -0.249782
   3 F :   -0.249766
   4 H :    0.157538
   5 H :    0.170091
   6 H :    0.157496
   7 H :    0.110231
Sum of atomic charges:    0.0000000

LOEWDIN ATOMIC CHARGES
----------------------
   0 C :   -0.398548
   1 C :    0.339807
   2 F :   -0.305329
   3 F :   -0.305326
   4 H :    0.168952
   5 H :    0.172861
   6 H :    0.168998
   7 H :    0.158584

  Mayer bond orders larger than 0.100000
B(  0-C ,  1-C ) :   0.9857 B(  0-C ,  4-H ) :   0.9566 B(  0-C ,  5-H ) :   0.9624
B(  0-C ,  6-H ) :   0.9565 B(  1-C ,  2-F ) :   0.9338 B(  1-C ,  3-F ) :   0.9338
B(  1-C ,  7-H ) :   0.9659

Dispersion correction           -0.001048745
FINAL SINGLE POINT ENERGY      -278.285981380965

DIPOLE MOMENT
-------------

Method             : SCF
Type of density    : Electron Density
Multiplicity       :   1
Irrep              :   0
Energy             :  -278.2915710847393029 Eh
Relativity type    :
Basis              : AO
                                X                 Y                 Z
Electronic contribution:      5.424826103       0.000112675       0.556623199
Nuclear contribution   :     -6.237648534      -0.000179686      -0.944974944
                        -----------------------------------------
Total Dipole Moment    :     -0.812822431      -0.000067011      -0.388351746
                        -----------------------------------------
Magnitude (a.u.)       :      0.900831498
Magnitude (Debye)      :      2.289731700

Rotational constants in cm-1:             0.322541             0.291963             0.171928
Rotational constants in MHz :          9669.532223          8752.830150          5154.269388

                             ****ORCA TERMINATED NORMALLY****
TOTAL RUN TIME: 0 days 0 hours 0 minutes 17 seconds 451 msec
