                         Program Version 6.0.0  -   RELEASE  -
|  1> ! r2scan-3c def2/J RI DEFGRID2 scfconv6 printgap
|  2> %output
|  3>     printlevel normal
|  4> end
|  5> %cpcm
|  6>     smd true
|  7>     smdsolvent "water"
|  8> end
|  9> * xyz 0 1
| 10> C -1.4836820793 -0.0001556942 0.1077702547
| 11> C -0.0555369454 2.8121e-06 -0.3733876836
| 12> F 0.6300207628 -1.0845550192 0.1051523188
| 13> F 0.6298016273 1.0846565143 0.1051881067
| 14> H -1.9832661988 -0.8884948705 -0.2643837391
| 15> H -1.5023830677 -1.89547e-05 1.1946014018
| 16> H -1.9832324259 0.8882652178 -0.2649781736
| 17> H 0.0643373483 0.0001573136 -1.4647620961
| 18> *
| 19>
| 20>                          ****END OF INPUT****

CARTESIAN COORDINATES (ANGSTROEM)
---------------------------------
  C     -1.483682   -0.000156    0.107770
  C     -0.055537    0.000003   -0.373388
  F      0.630021   -1.084555    0.105152
  F      0.629802    1.084657    0.105188
  H     -1.983266   -0.888495   -0.264384
  H     -1.502383   -0.000019    1.194601
  H     -1.983232    0.888265   -0.264978
  H      0.064337    0.000157   -1.464762

 Total Charge           Charge          ....    0
 Multiplicity           Mult            ....    1
 Number of Electrons    NEL             ....   34
 Basis Dimension        Dim             ....  106

ORBITAL ENERGIES
----------------

  NO   OCC          E(Eh)            E(eV)
   0   2.0000     -24.487981      -666.3518
   1   2.0000     -24.487976      -666.3517
   2   2.0000     -10.183787      -277.1149
   3   2.0000     -10.026231      -272.8276
   4   2.0000      -1.208007       -32.8715
   5   2.0000      -1.148907       -31.2633
   6   2.0000      -0.730145       -19.8683
   7   2.0000      -0.607862       -16.5408
   8   2.0000      -0.507129       -13.7997
   9   2.0000      -0.506479       -13.7820
  10   2.0000      -0.458942       -12.4884
  11   2.0000      -0.390186       -10.6175
  12   2.0000      -0.379730       -10.3330
  13   2.0000      -0.366731        -9.9793
  14   2.0000      -0.354277        -9.6404
  15   2.0000      -0.345978        -9.4146
  16   2.0000      -0.297614        -8.0985
  17   0.0000       0.091621         2.4931
  18   0.0000       0.101264         2.7555
  19   0.0000       0.130096         3.5401
  20   0.0000       0.146157         3.9771
  21   0.0000       0.171141         4.6570

MULLIKEN ATOMIC CHARGES
-----------------------
   0 C :   -0.482023
   1 C :    0.338608
   2 F :   -0.272363
   3 F :   -0.272346
   4 H :    0.180503
   5 H :    0.181517
   6 H :    0.180469
   7 H :    0.145635
Sum of atomic charges:    0.0000000

LOEWDIN ATOMIC CHARGES
----------------------
   0 C :   -0.400917
   1 C :    0.341164
   2 F :   -0.322445
   3 F :   -0.322440
   4 H :    0.178002
   5 H :    0.174926
   6 H :    0.178053
   7 H :    0.173658

  Mayer bond orders larger than 0.100000
B(  0-C ,  1-C ) :   0.9877 B(  0-C ,  4-H ) :   0.9491 B(  0-C ,  5-H ) :   0.9579
B(  0-C ,  6-H ) :   0.9491 B(  1-C ,  2-F ) :   0.9144 B(  1-C ,  3-F ) :   0.9145
B(  1-C ,  7-H ) :   0.9580

Dispersion correction           -0.001048745
FINAL SINGLE POINT ENERGY      -278.288178154363

DIPOLE MOMENT
-------------

Method             : SCF
Type of density    : Electron Density
Multiplicity       :   1
Irrep              :   0
Energy             :  -278.2937678581372438 Eh
Relativity type    :
Basis              : AO
                                X                 Y                 Z
Electronic contribution:      5.238033551       0.000111875       0.420154595
Nuclear contribution   :     -6.237648534      -0.000179686      -0.944974944
                        -----------------------------------------
Total Dipole Moment    :     -0.999614983      -0.000067811      -0.524820350
                        -----------------------------------------
Magnitude (a.u.)       :      1.129011301
Magnitude (Debye)      :      2.869718666

Rotational constants in cm-1:             0.322541             0.291963             0.171928
Rotational constants in MHz :          9669.532223          8752.830150          5154.269388

                             ****ORCA TERMINATED NORMALLY****
TOTAL RUN TIME: 0 days 0 hours 0 minutes 14 seconds 363 msec
