                         Program Version 6.0.1  -  RELEASE   -
|  1> ! pbe def2-sv(p) def2/J RI DEFGRID1 loosescf d4 GCP(DFT/SV(P)) printgap
|  2> %output
|  3>     printlevel normal
|  4> end
|  5> * xyz 0 1
|  6> C 5.3124285944 -0.9153300494 -2.2139670134
|  7> C 4.3296380616 -0.0006243172 -1.5002605171
|  8> O 2.9904598145 -0.526545374 -1.5709557363
|  9> C 2.6084280229 -1.3989773364 -0.6626297316
| 10> O 3.2979994489 -1.8027100006 0.246228281
| 11> C 1.1702445692 -1.8361902715 -0.8914292333
| 12> C 0.2294569596 -0.647211391 -0.677170042
| 13> H 0.4562937431 0.1498801156 -1.3886782378
| 14> C 0.3825312519 -0.1264477837 0.7376927735
| 15> O -0.435466763 -0.3324462889 1.6131940187
| 16> O 1.5027008579 0.5215695813 0.8889772068
| 17> C 1.8265051358 1.0463343096 2.1963081099
| 18> C 3.3344164606 1.15481753 2.3037740817
| 19> S -1.5005861818 -1.1918072624 -0.9107519656
| 20> P -2.5021202455 0.414128451 0.0344166683
| 21> S -1.5576246101 2.1387541294 0.1214638447
| 22> O -3.8323459679 0.4793949121 -0.8459784924
| 23> C -3.7925969996 0.8969638976 -2.2154085443
| 24> O -3.2370853172 -0.1072300025 1.3360066219
| 25> C -2.9818653291 0.3182114114 2.6770484358
| 26> H 4.9995235257 -1.072644514 -3.2423816467
| 27> H 6.2969942377 -0.4596315237 -2.2052946489
| 28> H 5.3640746562 -1.8764800589 -1.7076249698
| 29> H 4.265420886 0.9725082764 -1.9868912187
| 30> H 4.6028967225 0.115886155 -0.4483754401
| 31> H 0.9278047513 -2.6388840904 -0.1943915838
| 32> H 1.0576819358 -2.1917690731 -1.9154937372
| 33> H 1.3394818345 2.0224115181 2.2802719826
| 34> H 1.4100432747 0.3721816645 2.9500224418
| 35> H 3.5954580331 1.5217957014 3.2905865758
| 36> H 3.7861038603 0.1769445714 2.1541094287
| 37> H 3.7131164207 1.8423313971 1.5534189757
| 38> H -3.3119663623 0.133489666 -2.8275030151
| 39> H -3.2532597319 1.842005453 -2.3033396125
| 40> H -4.8311412757 1.0248561049 -2.509377853
| 41> H -2.496723328 1.2959472611 2.6825888239
| 42> H -2.3397211037 -0.4115209089 3.166718786
| 43> H -3.9535110271 0.3736907708 3.1628168601
| 44> *
| 45>
| 46>                          ****END OF INPUT****

CARTESIAN COORDINATES (ANGSTROEM)
---------------------------------
  C      5.312429   -0.915330   -2.213967
  C      4.329638   -0.000624   -1.500261
  O      2.990460   -0.526545   -1.570956
  C      2.608428   -1.398977   -0.662630
  O      3.297999   -1.802710    0.246228
  C      1.170245   -1.836190   -0.891429
  C      0.229457   -0.647211   -0.677170
  H      0.456294    0.149880   -1.388678
  C      0.382531   -0.126448    0.737693
  O     -0.435467   -0.332446    1.613194
  O      1.502701    0.521570    0.888977
  C      1.826505    1.046334    2.196308
  C      3.334416    1.154818    2.303774
  S     -1.500586   -1.191807   -0.910752
  P     -2.502120    0.414128    0.034417
  S     -1.557625    2.138754    0.121464
  O     -3.832346    0.479395   -0.845978
  C     -3.792597    0.896964   -2.215409
  O     -3.237085   -0.107230    1.336007
  C     -2.981865    0.318211    2.677048
  H      4.999524   -1.072645   -3.242382
  H      6.296994   -0.459632   -2.205295
  H      5.364075   -1.876480   -1.707625
  H      4.265421    0.972508   -1.986891
  H      4.602897    0.115886   -0.448375
  H      0.927805   -2.638884   -0.194392
  H      1.057682   -2.191769   -1.915494
  H      1.339482    2.022412    2.280272
  H      1.410043    0.372182    2.950022
  H      3.595458    1.521796    3.290587
  H      3.786104    0.176945    2.154109
  H      3.713116    1.842331    1.553419
  H     -3.311966    0.133490   -2.827503
  H     -3.253260    1.842005   -2.303340
  H     -4.831141    1.024856   -2.509378
  H     -2.496723    1.295947    2.682589
  H     -2.339721   -0.411521    3.166719
  H     -3.953511    0.373691    3.162817

 Total Charge           Charge          ....    0
 Multiplicity           Mult            ....    1
 Number of Electrons    NEL             ....  174
 Basis Dimension        Dim             ....  316

ORBITAL ENERGIES
----------------

  NO   OCC          E(Eh)            E(eV)
   0   2.0000     -88.036666     -2395.5995
   1   2.0000     -87.979404     -2394.0413
   2   2.0000     -76.422211     -2079.5541
   3   2.0000     -18.817400      -512.0475
   4   2.0000     -18.810549      -511.8610
   5   2.0000     -18.782120      -511.0875
   6   2.0000     -18.780796      -511.0515
   7   2.0000     -18.746821      -510.1269
   8   2.0000     -18.745927      -510.1026
   9   2.0000     -10.023804      -272.7616
  10   2.0000     -10.019168      -272.6354
  11   2.0000      -9.955189      -270.8945
  12   2.0000      -9.952709      -270.8270
  13   2.0000      -9.950397      -270.7641
  14   2.0000      -9.936891      -270.3966
  15   2.0000      -9.932491      -270.2768
  16   2.0000      -9.920388      -269.9475
  17   2.0000      -9.893050      -269.2036
  18   2.0000      -9.890383      -269.1310
  19   2.0000      -7.681929      -209.0359
  20   2.0000      -7.624446      -207.4717
  21   2.0000      -6.418483      -174.6558
  22   2.0000      -5.709896      -155.3742
  23   2.0000      -5.706513      -155.2821
  24   2.0000      -5.698715      -155.0699
  25   2.0000      -5.653383      -153.8364
  26   2.0000      -5.645176      -153.6131
  27   2.0000      -5.644457      -153.5935
  28   2.0000      -4.640730      -126.2807
  29   2.0000      -4.640639      -126.2782
  30   2.0000      -4.639087      -126.2360
  31   2.0000      -1.027052       -27.9475
  32   2.0000      -1.017872       -27.6977
  33   2.0000      -0.976940       -26.5839
  34   2.0000      -0.933096       -25.3908
  35   2.0000      -0.927395       -25.2357
  36   2.0000      -0.923103       -25.1189
  37   2.0000      -0.770351       -20.9623
  38   2.0000      -0.716751       -19.5038
  39   2.0000      -0.713475       -19.4147
  40   2.0000      -0.692344       -18.8396
  41   2.0000      -0.658450       -17.9173
  42   2.0000      -0.627142       -17.0654
  43   2.0000      -0.620652       -16.8888
  44   2.0000      -0.615566       -16.7504
  45   2.0000      -0.599750       -16.3200
  46   2.0000      -0.563064       -15.3218
  47   2.0000      -0.516267       -14.0483
  48   2.0000      -0.509739       -13.8707
  49   2.0000      -0.502361       -13.6699
  50   2.0000      -0.479871       -13.0580
  51   2.0000      -0.470382       -12.7997
  52   2.0000      -0.463257       -12.6059
  53   2.0000      -0.457979       -12.4622
  54   2.0000      -0.440319       -11.9817
  55   2.0000      -0.433045       -11.7837
  56   2.0000      -0.421075       -11.4580
  57   2.0000      -0.419586       -11.4175
  58   2.0000      -0.413559       -11.2535
  59   2.0000      -0.405236       -11.0270
  60   2.0000      -0.401651       -10.9295
  61   2.0000      -0.398039       -10.8312
  62   2.0000      -0.391227       -10.6458
  63   2.0000      -0.384499       -10.4628
  64   2.0000      -0.378144       -10.2898
  65   2.0000      -0.370254       -10.0751
  66   2.0000      -0.363847        -9.9008
  67   2.0000      -0.355963        -9.6863
  68   2.0000      -0.353229        -9.6119
  69   2.0000      -0.348797        -9.4913
  70   2.0000      -0.338829        -9.2200
  71   2.0000      -0.332506        -9.0480
  72   2.0000      -0.328426        -8.9369
  73   2.0000      -0.311687        -8.4814
  74   2.0000      -0.304788        -8.2937
  75   2.0000      -0.301570        -8.2061
  76   2.0000      -0.296724        -8.0743
  77   2.0000      -0.284926        -7.7532
  78   2.0000      -0.273450        -7.4410
  79   2.0000      -0.266742        -7.2584
  80   2.0000      -0.260775        -7.0961
  81   2.0000      -0.254034        -6.9126
  82   2.0000      -0.235351        -6.4042
  83   2.0000      -0.228753        -6.2247
  84   2.0000      -0.219423        -5.9708
  85   2.0000      -0.198842        -5.4108
  86   2.0000      -0.195403        -5.3172
  87   0.0000      -0.046504        -1.2654
  88   0.0000      -0.039804        -1.0831
  89   0.0000      -0.023479        -0.6389
  90   0.0000       0.012143         0.3304
  91   0.0000       0.028584         0.7778

MULLIKEN ATOMIC CHARGES
-----------------------
   0 C :   -0.303848
   1 C :   -0.023037
   2 O :   -0.232661
   3 C :    0.107026
   4 O :   -0.200397
   5 C :   -0.044593
   6 C :   -0.287059
   7 H :    0.153876
   8 C :    0.181961
   9 O :   -0.200688
  10 O :   -0.219273
  11 C :   -0.023526
  12 C :   -0.302576
  13 S :   -0.087309
  14 P :    0.625589
  15 S :   -0.354223
  16 O :   -0.368313
  17 C :   -0.100178
  18 O :   -0.363671
  19 C :   -0.089202
  20 H :    0.115466
  21 H :    0.114990
  22 H :    0.127657
  23 H :    0.106714
  24 H :    0.115991
  25 H :    0.113828
  26 H :    0.125980
  27 H :    0.114828
  28 H :    0.115212
  29 H :    0.113402
  30 H :    0.143250
  31 H :    0.116033
  32 H :    0.111688
  33 H :    0.113274
  34 H :    0.124589
  35 H :    0.113721
  36 H :    0.127918
  37 H :    0.117559
Sum of atomic charges:    0.0000000

LOEWDIN ATOMIC CHARGES
----------------------
   0 C :   -0.355524
   1 C :   -0.109969
   2 O :   -0.055708
   3 C :    0.025695
   4 O :   -0.163694
   5 C :   -0.238104
   6 C :   -0.263486
   7 H :    0.142175
   8 C :    0.007634
   9 O :   -0.167247
  10 O :   -0.031163
  11 C :   -0.101669
  12 C :   -0.356120
  13 S :    0.102138
  14 P :    0.586648
  15 S :   -0.335186
  16 O :   -0.252538
  17 C :   -0.219189
  18 O :   -0.234215
  19 C :   -0.206697
  20 H :    0.125594
  21 H :    0.131850
  22 H :    0.131041
  23 H :    0.119946
  24 H :    0.121003
  25 H :    0.141345
  26 H :    0.143715
  27 H :    0.122018
  28 H :    0.121401
  29 H :    0.131879
  30 H :    0.133277
  31 H :    0.124402
  32 H :    0.105475
  33 H :    0.108777
  34 H :    0.122124
  35 H :    0.108225
  36 H :    0.117261
  37 H :    0.116884

  Mayer bond orders larger than 0.100000
B(  0-C ,  1-C ) :   1.1725 B(  0-C , 20-H ) :   0.9482 B(  0-C , 21-H ) :   0.9439
B(  0-C , 22-H ) :   0.9458 B(  1-C ,  2-O ) :   0.9129 B(  1-C , 23-H ) :   0.9369
B(  1-C , 24-H ) :   0.9102 B(  2-O ,  3-C ) :   1.2136 B(  3-C ,  4-O ) :   2.0377
B(  3-C ,  5-C ) :   1.0211 B(  5-C ,  6-C ) :   1.0522 B(  5-C , 25-H ) :   0.8967
B(  5-C , 26-H ) :   0.8905 B(  6-C ,  7-H ) :   0.8692 B(  6-C ,  8-C ) :   0.8889
B(  6-C , 13-S ) :   1.0212 B(  8-C ,  9-O ) :   1.9796 B(  8-C , 10-O ) :   1.2573
B( 10-O , 11-C ) :   0.8872 B( 11-C , 12-C ) :   1.1621 B( 11-C , 27-H ) :   0.9322
B( 11-C , 28-H ) :   0.9200 B( 12-C , 29-H ) :   0.9404 B( 12-C , 30-H ) :   0.9360
B( 12-C , 31-H ) :   0.9446 B( 13-S , 14-P ) :   0.9455 B( 13-S , 15-S ) :   0.1154
B( 14-P , 15-S ) :   1.5635 B( 14-P , 16-O ) :   1.1030 B( 14-P , 18-O ) :   1.1502
B( 16-O , 17-C ) :   0.9393 B( 17-C , 32-H ) :   0.9436 B( 17-C , 33-H ) :   0.9355
B( 17-C , 34-H ) :   0.9592 B( 18-O , 19-C ) :   0.9220 B( 19-C , 35-H ) :   0.9355
B( 19-C , 36-H ) :   0.9509 B( 19-C , 37-H ) :   0.9542

Dispersion correction           -0.052036396
FINAL SINGLE POINT ENERGY     -1979.015963181145

DIPOLE MOMENT
-------------

Method             : SCF
Type of density    : Electron Density
Multiplicity       :   1
Irrep              :   0
Energy             : -1979.1471846002818893 Eh
Relativity type    :
Basis              : AO
                                X                 Y                 Z
Electronic contribution:    -21.519094391      -2.337296774      -0.924593508
Nuclear contribution   :     22.619736572       2.571956431       0.496368980
                        -----------------------------------------
Total Dipole Moment    :      1.100642181       0.234659658      -0.428224528
                        -----------------------------------------
Magnitude (a.u.)       :      1.204099088
Magnitude (Debye)      :      3.060576653

Rotational constants in cm-1:             0.016965             0.005911             0.005208
Rotational constants in MHz :           508.592364           177.215040           156.135200

                             ****ORCA TERMINATED NORMALLY****
TOTAL RUN TIME: 0 days 0 hours 0 minutes 40 seconds 732 msec
