                         Program Version 6.0.0  -   RELEASE  -
|  1> ! pbe def2-sv(p) def2/J RI DEFGRID1 loosescf d4 GCP(DFT/SV(P)) printgap
|  2> %output
|  3>     printlevel normal
|  4> end
|  5> * xyz 0 1
|  6> C 4.036044945 -1.1165739599 -2.76223769
|  7> C 4.2793657321 0.1404926476 -1.9529443913
|  8> O 3.7246152843 0.0475034579 -0.6287717842
|  9> P 2.15706658 -0.0003935955 -0.3606515475
| 10> S 1.1287001693 1.174327307 -1.5565108037
| 11> O 2.1088811667 0.2862078973 1.1937810279
| 12> C 2.5241870491 1.5527821778 1.7529657412
| 13> C 2.3428811876 1.4679209395 3.2529643059
| 14> S 1.6359226794 -2.032357651 -0.3602622216
| 15> C -0.0934521478 -1.9047139871 -0.899278232
| 16> S -1.2914219407 -1.8457357333 0.4698662261
| 17> P -1.9408920229 0.1632682359 0.5036606309
| 18> S -0.9296758084 1.5865787462 1.3780486764
| 19> O -3.342658147 0.0496081908 1.2366056923
| 20> C -4.394979857 -0.8554959904 0.8237068974
| 21> C -4.519424234 -2.0009338596 1.8080176364
| 22> O -2.2232087175 0.3417398233 -1.0620198043
| 23> C -2.3688203981 1.6398644543 -1.6641431859
| 24> C -3.6686141746 2.3008000184 -1.2558516419
| 25> H 2.9733978101 -1.2197390103 -2.9769238351
| 26> H 4.5800514742 -1.0497763864 -3.6988719996
| 27> H 4.369492465 -1.9916140807 -2.2103476404
| 28> H 3.8389923546 1.010543944 -2.450523212
| 29> H 5.3425981651 0.3102234684 -1.778246611
| 30> H 3.5681787712 1.7225527383 1.4780087011
| 31> H 1.8978325975 2.341051765 1.3228724445
| 32> H 2.9142098814 0.6338931663 3.6498854773
| 33> H 2.6832229112 2.3933023439 3.7054823578
| 34> H 1.2907835091 1.3225205318 3.4841565374
| 35> H -0.3103217939 -2.8151856076 -1.4509934336
| 36> H -0.2116386813 -1.0174961873 -1.5239117781
| 37> H -5.2995227499 -0.2444937937 0.8145885886
| 38> H -4.1822327239 -1.2176558514 -0.1851129067
| 39> H -3.611219812 -2.5996099943 1.810338153
| 40> H -4.6847429346 -1.612285377 2.8089602225
| 41> H -5.3591279517 -2.6259749385 1.5215368141
| 42> H -1.5099555611 2.2561813031 -1.3794209674
| 43> H -2.3276721413 1.4397985549 -2.7358767452
| 44> H -3.7599757531 3.2544025501 -1.7660777393
| 45> H -4.5132648834 1.6685733225 -1.5175129388
| 46> H -3.6706631298 2.4742591974 -0.1798172384
| 47> *
| 48>
| 49>                          ****END OF INPUT****

CARTESIAN COORDINATES (ANGSTROEM)
---------------------------------
  C      4.036045   -1.116574   -2.762238
  C      4.279366    0.140493   -1.952944
  O      3.724615    0.047503   -0.628772
  P      2.157067   -0.000394   -0.360652
  S      1.128700    1.174327   -1.556511
  O      2.108881    0.286208    1.193781
  C      2.524187    1.552782    1.752966
  C      2.342881    1.467921    3.252964
  S      1.635923   -2.032358   -0.360262
  C     -0.093452   -1.904714   -0.899278
  S     -1.291422   -1.845736    0.469866
  P     -1.940892    0.163268    0.503661
  S     -0.929676    1.586579    1.378049
  O     -3.342658    0.049608    1.236606
  C     -4.394980   -0.855496    0.823707
  C     -4.519424   -2.000934    1.808018
  O     -2.223209    0.341740   -1.062020
  C     -2.368820    1.639864   -1.664143
  C     -3.668614    2.300800   -1.255852
  H      2.973398   -1.219739   -2.976924
  H      4.580051   -1.049776   -3.698872
  H      4.369492   -1.991614   -2.210348
  H      3.838992    1.010544   -2.450523
  H      5.342598    0.310223   -1.778247
  H      3.568179    1.722553    1.478009
  H      1.897833    2.341052    1.322872
  H      2.914210    0.633893    3.649885
  H      2.683223    2.393302    3.705482
  H      1.290784    1.322521    3.484157
  H     -0.310322   -2.815186   -1.450993
  H     -0.211639   -1.017496   -1.523912
  H     -5.299523   -0.244494    0.814589
  H     -4.182233   -1.217656   -0.185113
  H     -3.611220   -2.599610    1.810338
  H     -4.684743   -1.612285    2.808960
  H     -5.359128   -2.625975    1.521537
  H     -1.509956    2.256181   -1.379421
  H     -2.327672    1.439799   -2.735877
  H     -3.759976    3.254403   -1.766078
  H     -4.513265    1.668573   -1.517513
  H     -3.670663    2.474259   -0.179817

 Total Charge           Charge          ....    0
 Multiplicity           Mult            ....    1
 Number of Electrons    NEL             ....  202
 Basis Dimension        Dim             ....  334

ORBITAL ENERGIES
----------------

  NO   OCC          E(Eh)            E(eV)
   0   2.0000     -88.043183     -2395.7768
   1   2.0000     -88.040107     -2395.6931
   2   2.0000     -87.985226     -2394.1997
   3   2.0000     -87.973932     -2393.8924
   4   2.0000     -76.422769     -2079.5693
   5   2.0000     -76.420207     -2079.4996
   6   2.0000     -18.791086      -511.3314
   7   2.0000     -18.789559      -511.2899
   8   2.0000     -18.788615      -511.2642
   9   2.0000     -18.781343      -511.0663
  10   2.0000      -9.957678      -270.9622
  11   2.0000      -9.954488      -270.8754
  12   2.0000      -9.950893      -270.7776
  13   2.0000      -9.943953      -270.5887
  14   2.0000      -9.941000      -270.5084
  15   2.0000      -9.886358      -269.0215
  16   2.0000      -9.883596      -268.9463
  17   2.0000      -9.881492      -268.8891
  18   2.0000      -9.873123      -268.6613
  19   2.0000      -7.688857      -209.2244
  20   2.0000      -7.685638      -209.1368
  21   2.0000      -7.629984      -207.6224
  22   2.0000      -7.619198      -207.3289
  23   2.0000      -6.420678      -174.7155
  24   2.0000      -6.417952      -174.6413
  25   2.0000      -5.716732      -155.5602
  26   2.0000      -5.713752      -155.4791
  27   2.0000      -5.713291      -155.4666
  28   2.0000      -5.709821      -155.3721
  29   2.0000      -5.705759      -155.2616
  30   2.0000      -5.702587      -155.1753
  31   2.0000      -5.658668      -153.9802
  32   2.0000      -5.650970      -153.7707
  33   2.0000      -5.650006      -153.7445
  34   2.0000      -5.648266      -153.6971
  35   2.0000      -5.639759      -153.4657
  36   2.0000      -5.639155      -153.4492
  37   2.0000      -4.643186      -126.3475
  38   2.0000      -4.642166      -126.3198
  39   2.0000      -4.641395      -126.2988
  40   2.0000      -4.640947      -126.2866
  41   2.0000      -4.639650      -126.2513
  42   2.0000      -4.638117      -126.2096
  43   2.0000      -0.982958       -26.7476
  44   2.0000      -0.981132       -26.6980
  45   2.0000      -0.941363       -25.6158
  46   2.0000      -0.938587       -25.5403
  47   2.0000      -0.761571       -20.7234
  48   2.0000      -0.719745       -19.5853
  49   2.0000      -0.706814       -19.2334
  50   2.0000      -0.689500       -18.7622
  51   2.0000      -0.683370       -18.5954
  52   2.0000      -0.670505       -18.2454
  53   2.0000      -0.648610       -17.6496
  54   2.0000      -0.631989       -17.1973
  55   2.0000      -0.597116       -16.2483
  56   2.0000      -0.582344       -15.8464
  57   2.0000      -0.573992       -15.6191
  58   2.0000      -0.567910       -15.4536
  59   2.0000      -0.554003       -15.0752
  60   2.0000      -0.500429       -13.6174
  61   2.0000      -0.495522       -13.4838
  62   2.0000      -0.475641       -12.9429
  63   2.0000      -0.469071       -12.7641
  64   2.0000      -0.453380       -12.3371
  65   2.0000      -0.445051       -12.1105
  66   2.0000      -0.439273       -11.9532
  67   2.0000      -0.429744       -11.6939
  68   2.0000      -0.422190       -11.4884
  69   2.0000      -0.419776       -11.4227
  70   2.0000      -0.408519       -11.1164
  71   2.0000      -0.398758       -10.8508
  72   2.0000      -0.387467       -10.5435
  73   2.0000      -0.382777       -10.4159
  74   2.0000      -0.380203       -10.3458
  75   2.0000      -0.368239       -10.0203
  76   2.0000      -0.362719        -9.8701
  77   2.0000      -0.355482        -9.6732
  78   2.0000      -0.350570        -9.5395
  79   2.0000      -0.348470        -9.4824
  80   2.0000      -0.345072        -9.3899
  81   2.0000      -0.342975        -9.3328
  82   2.0000      -0.335900        -9.1403
  83   2.0000      -0.332479        -9.0472
  84   2.0000      -0.324823        -8.8389
  85   2.0000      -0.312891        -8.5142
  86   2.0000      -0.308782        -8.4024
  87   2.0000      -0.300957        -8.1895
  88   2.0000      -0.294566        -8.0156
  89   2.0000      -0.286119        -7.7857
  90   2.0000      -0.274062        -7.4576
  91   2.0000      -0.271088        -7.3767
  92   2.0000      -0.266885        -7.2623
  93   2.0000      -0.262043        -7.1306
  94   2.0000      -0.259347        -7.0572
  95   2.0000      -0.237471        -6.4619
  96   2.0000      -0.220757        -6.0071
  97   2.0000      -0.212312        -5.7773
  98   2.0000      -0.206093        -5.6081
  99   2.0000      -0.190006        -5.1703
 100   2.0000      -0.178325        -4.8525
 101   0.0000      -0.036675        -0.9980
 102   0.0000      -0.026237        -0.7139
 103   0.0000      -0.020072        -0.5462
 104   0.0000       0.008675         0.2361
 105   0.0000       0.018529         0.5042

MULLIKEN ATOMIC CHARGES
-----------------------
   0 C :   -0.311366
   1 C :   -0.003464
   2 O :   -0.380292
   3 P :    0.626468
   4 S :   -0.337034
   5 O :   -0.356984
   6 C :   -0.005587
   7 C :   -0.283168
   8 S :   -0.073720
   9 C :   -0.359694
  10 S :   -0.098520
  11 P :    0.616499
  12 S :   -0.304344
  13 O :   -0.368245
  14 C :   -0.027376
  15 C :   -0.288010
  16 O :   -0.389183
  17 C :   -0.014707
  18 C :   -0.311667
  19 H :    0.119491
  20 H :    0.112182
  21 H :    0.117844
  22 H :    0.110817
  23 H :    0.103812
  24 H :    0.098152
  25 H :    0.113064
  26 H :    0.111304
  27 H :    0.104514
  28 H :    0.131386
  29 H :    0.183262
  30 H :    0.207877
  31 H :    0.109085
  32 H :    0.105617
  33 H :    0.127717
  34 H :    0.121809
  35 H :    0.109048
  36 H :    0.130346
  37 H :    0.100997
  38 H :    0.112813
  39 H :    0.108079
  40 H :    0.131177
Sum of atomic charges:   -0.0000000

LOEWDIN ATOMIC CHARGES
----------------------
   0 C :   -0.369286
   1 C :   -0.120257
   2 O :   -0.245745
   3 P :    0.570952
   4 S :   -0.309437
   5 O :   -0.234662
   6 C :   -0.117028
   7 C :   -0.352497
   8 S :    0.096302
   9 C :   -0.478342
  10 S :    0.081819
  11 P :    0.561861
  12 S :   -0.297194
  13 O :   -0.242029
  14 C :   -0.122436
  15 C :   -0.359255
  16 O :   -0.252424
  17 C :   -0.124066
  18 C :   -0.366181
  19 H :    0.118776
  20 H :    0.130484
  21 H :    0.124462
  22 H :    0.109735
  23 H :    0.118040
  24 H :    0.107467
  25 H :    0.110163
  26 H :    0.125089
  27 H :    0.127875
  28 H :    0.129160
  29 H :    0.138590
  30 H :    0.128429
  31 H :    0.119257
  32 H :    0.107070
  33 H :    0.120545
  34 H :    0.129919
  35 H :    0.129761
  36 H :    0.110562
  37 H :    0.116559
  38 H :    0.131367
  39 H :    0.120338
  40 H :    0.126259

  Mayer bond orders larger than 0.100000
B(  0-C ,  1-C ) :   1.1657 B(  0-C , 19-H ) :   0.9360 B(  0-C , 20-H ) :   0.9381
B(  0-C , 21-H ) :   0.9448 B(  1-C ,  2-O ) :   0.9105 B(  1-C , 22-H ) :   0.9138
B(  1-C , 23-H ) :   0.9333 B(  2-O ,  3-P ) :   1.0959 B(  3-P ,  4-S ) :   1.5981
B(  3-P ,  5-O ) :   1.1594 B(  3-P ,  8-S ) :   0.9662 B(  4-S ,  8-S ) :   0.1169
B(  5-O ,  6-C ) :   0.8904 B(  6-C ,  7-C ) :   1.1686 B(  6-C , 24-H ) :   0.9275
B(  6-C , 25-H ) :   0.9139 B(  7-C , 26-H ) :   0.9493 B(  7-C , 27-H ) :   0.9411
B(  7-C , 28-H ) :   0.9431 B(  8-S ,  9-C ) :   1.0117 B(  9-C , 10-S ) :   0.9895
B(  9-C , 29-H ) :   0.9112 B(  9-C , 30-H ) :   0.8518 B( 10-S , 11-P ) :   0.9655
B( 10-S , 12-S ) :   0.1055 B( 11-P , 12-S ) :   1.6616 B( 11-P , 13-O ) :   1.1078
B( 11-P , 16-O ) :   1.0667 B( 13-O , 14-C ) :   0.8977 B( 14-C , 15-C ) :   1.1672
B( 14-C , 31-H ) :   0.9311 B( 14-C , 32-H ) :   0.9135 B( 15-C , 33-H ) :   0.9385
B( 15-C , 34-H ) :   0.9457 B( 15-C , 35-H ) :   0.9399 B( 16-O , 17-C ) :   0.9002
B( 17-C , 18-C ) :   1.1606 B( 17-C , 36-H ) :   0.9068 B( 17-C , 37-H ) :   0.9357
B( 18-C , 38-H ) :   0.9402 B( 18-C , 39-H ) :   0.9453 B( 18-C , 40-H ) :   0.9345

Dispersion correction           -0.066206224
FINAL SINGLE POINT ENERGY     -2929.517293760472

DIPOLE MOMENT
-------------

Method             : SCF
Type of density    : Electron Density
Multiplicity       :   1
Irrep              :   0
Energy             : -2929.6364208360673729 Eh
Relativity type    :
Basis              : AO
                                X                 Y                 Z
Electronic contribution:      5.572540629      -4.531978797       2.261269523
Nuclear contribution   :     -5.816670873       4.056906525      -3.171215939
                        -----------------------------------------
Total Dipole Moment    :     -0.244130244      -0.475072272      -0.909946416
                        -----------------------------------------
Magnitude (a.u.)       :      1.055128296
Magnitude (Debye)      :      2.681922992

Rotational constants in cm-1:             0.012043             0.005102             0.004962
Rotational constants in MHz :           361.051324           152.939860           148.763644

                             ****ORCA TERMINATED NORMALLY****
TOTAL RUN TIME: 0 days 0 hours 0 minutes 21 seconds 276 msec
