                         Program Version 6.0.0  -   RELEASE  -
|  1> ! pbe def2-sv(p) def2/J RI DEFGRID1 loosescf d4 GCP(DFT/SV(P)) printgap
|  2> %output
|  3>     printlevel normal
|  4> end
|  5> * xyz 0 1
|  6> C 4.3217739739 -0.4688686882 -2.3792813223
|  7> C 4.3940006872 -0.5192139473 -0.8676461075
|  8> O 3.5102554566 0.420617845 -0.2292742559
|  9> P 1.9362724249 0.5035653403 -0.443438809
| 10> S 1.3341970928 1.3496903745 -2.1060702524
| 11> O 1.5133135072 1.3745230969 0.8048703599
| 12> C 2.2037945813 1.4089422914 2.0797319873
| 13> C 2.3172590635 0.0518194945 2.7403970465
| 14> S 1.2902651386 -1.5099194691 -0.1451049511
| 15> C 0.0489473695 -1.6383450224 -1.4545239132
| 16> S -1.644157971 -1.8811257069 -0.8460345477
| 17> P -1.9117661723 -0.2270982277 0.435721401
| 18> S -1.29606193 -0.2984576674 2.2990532681
| 19> O -3.4707992371 0.0757299712 0.3360972095
| 20> C -4.4173890987 -0.5380281941 1.2271887386
| 21> C -4.5523639519 -2.0228491518 0.9617857512
| 22> O -1.2728249648 0.9183071169 -0.4560761504
| 23> C -1.4450803697 2.3071474833 -0.0980519491
| 24> C -2.539682455 2.9345246076 -0.9341928998
| 25> H 4.4876223385 0.5455215514 -2.7340574058
| 26> H 5.0796967237 -1.1243507469 -2.7958756829
| 27> H 3.3415906574 -0.7952493513 -2.7230274843
| 28> H 5.3806860993 -0.223083549 -0.5069105175
| 29> H 4.1503648973 -1.5209419756 -0.5023150182
| 30> H 3.189478087 1.8467709064 1.9107936394
| 31> H 1.5893675349 2.0859513343 2.675317337
| 32> H 2.8030757469 0.1714739991 3.7036749647
| 33> H 1.3312812776 -0.3801565236 2.8954462981
| 34> H 2.907083665 -0.6275053446 2.1280554168
| 35> H 0.2638017871 -2.5306240617 -2.0382632413
| 36> H 0.0971224361 -0.7353930071 -2.0710902295
| 37> H -4.0913464304 -0.3575426313 2.2570657287
| 38> H -5.3486222804 -0.0046523559 1.033024374
| 39> H -5.3309337097 -2.4345740387 1.5957631917
| 40> H -4.8006214406 -2.2003155842 -0.081369842
| 41> H -3.6105509917 -2.5244656821 1.1855632412
| 42> H -1.6604634142 2.3715984701 0.9735604132
| 43> H -0.4769104064 2.7722264066 -0.2981885225
| 44> H -2.6190202824 3.9870322392 -0.6809666662
| 45> H -2.2936681246 2.8354719756 -1.9881635059
| 46> H -3.4897084191 2.4421470779 -0.7438552262
| 47> *
| 48>
| 49>                          ****END OF INPUT****

CARTESIAN COORDINATES (ANGSTROEM)
---------------------------------
  C      4.321774   -0.468869   -2.379281
  C      4.394001   -0.519214   -0.867646
  O      3.510255    0.420618   -0.229274
  P      1.936272    0.503565   -0.443439
  S      1.334197    1.349690   -2.106070
  O      1.513314    1.374523    0.804870
  C      2.203795    1.408942    2.079732
  C      2.317259    0.051819    2.740397
  S      1.290265   -1.509919   -0.145105
  C      0.048947   -1.638345   -1.454524
  S     -1.644158   -1.881126   -0.846035
  P     -1.911766   -0.227098    0.435721
  S     -1.296062   -0.298458    2.299053
  O     -3.470799    0.075730    0.336097
  C     -4.417389   -0.538028    1.227189
  C     -4.552364   -2.022849    0.961786
  O     -1.272825    0.918307   -0.456076
  C     -1.445080    2.307147   -0.098052
  C     -2.539682    2.934525   -0.934193
  H      4.487622    0.545522   -2.734057
  H      5.079697   -1.124351   -2.795876
  H      3.341591   -0.795249   -2.723027
  H      5.380686   -0.223084   -0.506911
  H      4.150365   -1.520942   -0.502315
  H      3.189478    1.846771    1.910794
  H      1.589368    2.085951    2.675317
  H      2.803076    0.171474    3.703675
  H      1.331281   -0.380157    2.895446
  H      2.907084   -0.627505    2.128055
  H      0.263802   -2.530624   -2.038263
  H      0.097122   -0.735393   -2.071090
  H     -4.091346   -0.357543    2.257066
  H     -5.348622   -0.004652    1.033024
  H     -5.330934   -2.434574    1.595763
  H     -4.800621   -2.200316   -0.081370
  H     -3.610551   -2.524466    1.185563
  H     -1.660463    2.371598    0.973560
  H     -0.476910    2.772226   -0.298189
  H     -2.619020    3.987032   -0.680967
  H     -2.293668    2.835472   -1.988164
  H     -3.489708    2.442147   -0.743855

 Total Charge           Charge          ....    0
 Multiplicity           Mult            ....    1
 Number of Electrons    NEL             ....  202
 Basis Dimension        Dim             ....  334

ORBITAL ENERGIES
----------------

  NO   OCC          E(Eh)            E(eV)
   0   2.0000     -88.045414     -2395.8375
   1   2.0000     -88.039608     -2395.6795
   2   2.0000     -87.983573     -2394.1548
   3   2.0000     -87.980629     -2394.0746
   4   2.0000     -76.427381     -2079.6948
   5   2.0000     -76.422298     -2079.5565
   6   2.0000     -18.795758      -511.4586
   7   2.0000     -18.790997      -511.3290
   8   2.0000     -18.787017      -511.2207
   9   2.0000     -18.782662      -511.1022
  10   2.0000      -9.958877      -270.9948
  11   2.0000      -9.954291      -270.8700
  12   2.0000      -9.950818      -270.7755
  13   2.0000      -9.950371      -270.7634
  14   2.0000      -9.937675      -270.4179
  15   2.0000      -9.885205      -268.9901
  16   2.0000      -9.884564      -268.9727
  17   2.0000      -9.878800      -268.8158
  18   2.0000      -9.873600      -268.6743
  19   2.0000      -7.689791      -209.2498
  20   2.0000      -7.685294      -209.1275
  21   2.0000      -7.628581      -207.5843
  22   2.0000      -7.625626      -207.5038
  23   2.0000      -6.424206      -174.8115
  24   2.0000      -6.420112      -174.7001
  25   2.0000      -5.717577      -155.5832
  26   2.0000      -5.714261      -155.4929
  27   2.0000      -5.713525      -155.4729
  28   2.0000      -5.709643      -155.3673
  29   2.0000      -5.706994      -155.2952
  30   2.0000      -5.701963      -155.1583
  31   2.0000      -5.657662      -153.9528
  32   2.0000      -5.654336      -153.8623
  33   2.0000      -5.649162      -153.7215
  34   2.0000      -5.648540      -153.7046
  35   2.0000      -5.646239      -153.6420
  36   2.0000      -5.645992      -153.6352
  37   2.0000      -4.647138      -126.4551
  38   2.0000      -4.646002      -126.4241
  39   2.0000      -4.644434      -126.3815
  40   2.0000      -4.642981      -126.3419
  41   2.0000      -4.641925      -126.3132
  42   2.0000      -4.640230      -126.2671
  43   2.0000      -0.987862       -26.8811
  44   2.0000      -0.983108       -26.7517
  45   2.0000      -0.941989       -25.6328
  46   2.0000      -0.940074       -25.5807
  47   2.0000      -0.761598       -20.7241
  48   2.0000      -0.718622       -19.5547
  49   2.0000      -0.705372       -19.1942
  50   2.0000      -0.690146       -18.7798
  51   2.0000      -0.684855       -18.6358
  52   2.0000      -0.672235       -18.2924
  53   2.0000      -0.648539       -17.6476
  54   2.0000      -0.635774       -17.3003
  55   2.0000      -0.596217       -16.2239
  56   2.0000      -0.589147       -16.0315
  57   2.0000      -0.580008       -15.7828
  58   2.0000      -0.567205       -15.4344
  59   2.0000      -0.557984       -15.1835
  60   2.0000      -0.496766       -13.5177
  61   2.0000      -0.492255       -13.3949
  62   2.0000      -0.469724       -12.7819
  63   2.0000      -0.468407       -12.7460
  64   2.0000      -0.454222       -12.3600
  65   2.0000      -0.449883       -12.2419
  66   2.0000      -0.436236       -11.8706
  67   2.0000      -0.431459       -11.7406
  68   2.0000      -0.428663       -11.6645
  69   2.0000      -0.413737       -11.2583
  70   2.0000      -0.410282       -11.1643
  71   2.0000      -0.407035       -11.0760
  72   2.0000      -0.390340       -10.6217
  73   2.0000      -0.387049       -10.5321
  74   2.0000      -0.381095       -10.3701
  75   2.0000      -0.367596       -10.0028
  76   2.0000      -0.356224        -9.6933
  77   2.0000      -0.353902        -9.6302
  78   2.0000      -0.350757        -9.5446
  79   2.0000      -0.348987        -9.4964
  80   2.0000      -0.347817        -9.4646
  81   2.0000      -0.344260        -9.3678
  82   2.0000      -0.336437        -9.1549
  83   2.0000      -0.332268        -9.0415
  84   2.0000      -0.332047        -9.0355
  85   2.0000      -0.318204        -8.6588
  86   2.0000      -0.306445        -8.3388
  87   2.0000      -0.297604        -8.0982
  88   2.0000      -0.294402        -8.0111
  89   2.0000      -0.288693        -7.8557
  90   2.0000      -0.279636        -7.6093
  91   2.0000      -0.277017        -7.5380
  92   2.0000      -0.269804        -7.3417
  93   2.0000      -0.260621        -7.0919
  94   2.0000      -0.254514        -6.9257
  95   2.0000      -0.237368        -6.4591
  96   2.0000      -0.222888        -6.0651
  97   2.0000      -0.200813        -5.4644
  98   2.0000      -0.199282        -5.4227
  99   2.0000      -0.193779        -5.2730
 100   2.0000      -0.191401        -5.2083
 101   0.0000      -0.044887        -1.2214
 102   0.0000      -0.035145        -0.9563
 103   0.0000      -0.020974        -0.5707
 104   0.0000       0.006941         0.1889
 105   0.0000       0.011507         0.3131

MULLIKEN ATOMIC CHARGES
-----------------------
   0 C :   -0.303708
   1 C :   -0.005696
   2 O :   -0.384366
   3 P :    0.625218
   4 S :   -0.303883
   5 O :   -0.362168
   6 C :    0.020292
   7 C :   -0.346087
   8 S :   -0.110428
   9 C :   -0.338134
  10 S :   -0.102620
  11 P :    0.621664
  12 S :   -0.324923
  13 O :   -0.374638
  14 C :   -0.005414
  15 C :   -0.326776
  16 O :   -0.365801
  17 C :   -0.011793
  18 C :   -0.284412
  19 H :    0.126572
  20 H :    0.110196
  21 H :    0.119622
  22 H :    0.106690
  23 H :    0.109454
  24 H :    0.104987
  25 H :    0.108178
  26 H :    0.109831
  27 H :    0.155587
  28 H :    0.114653
  29 H :    0.179400
  30 H :    0.206287
  31 H :    0.112078
  32 H :    0.104706
  33 H :    0.116495
  34 H :    0.122410
  35 H :    0.130465
  36 H :    0.092903
  37 H :    0.117095
  38 H :    0.104998
  39 H :    0.117229
  40 H :    0.113836
Sum of atomic charges:    0.0000000

LOEWDIN ATOMIC CHARGES
----------------------
   0 C :   -0.368001
   1 C :   -0.116882
   2 O :   -0.244827
   3 P :    0.579756
   4 S :   -0.287407
   5 O :   -0.231554
   6 C :   -0.106231
   7 C :   -0.377140
   8 S :    0.082598
   9 C :   -0.482716
  10 S :    0.081004
  11 P :    0.569371
  12 S :   -0.316052
  13 O :   -0.242466
  14 C :   -0.123605
  15 C :   -0.371209
  16 O :   -0.238734
  17 C :   -0.122421
  18 C :   -0.358465
  19 H :    0.130375
  20 H :    0.129517
  21 H :    0.119324
  22 H :    0.120014
  23 H :    0.105736
  24 H :    0.112668
  25 H :    0.122921
  26 H :    0.131284
  27 H :    0.124571
  28 H :    0.113476
  29 H :    0.137155
  30 H :    0.124539
  31 H :    0.109312
  32 H :    0.118365
  33 H :    0.133092
  34 H :    0.125976
  35 H :    0.121440
  36 H :    0.103666
  37 H :    0.114079
  38 H :    0.127460
  39 H :    0.127809
  40 H :    0.122202

  Mayer bond orders larger than 0.100000
B(  0-C ,  1-C ) :   1.1690 B(  0-C , 19-H ) :   0.9433 B(  0-C , 20-H ) :   0.9351
B(  0-C , 21-H ) :   0.9353 B(  1-C ,  2-O ) :   0.9101 B(  1-C , 22-H ) :   0.9332
B(  1-C , 23-H ) :   0.9214 B(  2-O ,  3-P ) :   1.0733 B(  3-P ,  4-S ) :   1.6154
B(  3-P ,  5-O ) :   1.1345 B(  3-P ,  8-S ) :   0.9416 B(  4-S ,  8-S ) :   0.1215
B(  4-S , 30-H ) :   0.1235 B(  5-O ,  6-C ) :   0.8921 B(  6-C ,  7-C ) :   1.1706
B(  6-C , 24-H ) :   0.9309 B(  6-C , 25-H ) :   0.9303 B(  7-C , 26-H ) :   0.9346
B(  7-C , 27-H ) :   0.9215 B(  7-C , 28-H ) :   0.9373 B(  8-S ,  9-C ) :   1.0085
B(  9-C , 10-S ) :   0.9966 B(  9-C , 29-H ) :   0.9109 B(  9-C , 30-H ) :   0.8415
B( 10-S , 11-P ) :   0.9623 B( 10-S , 12-S ) :   0.1119 B( 11-P , 12-S ) :   1.6290
B( 11-P , 13-O ) :   1.0763 B( 11-P , 16-O ) :   1.1291 B( 13-O , 14-C ) :   0.9115
B( 14-C , 15-C ) :   1.1639 B( 14-C , 31-H ) :   0.9102 B( 14-C , 32-H ) :   0.9315
B( 15-C , 33-H ) :   0.9383 B( 15-C , 34-H ) :   0.9440 B( 15-C , 35-H ) :   0.9310
B( 16-O , 17-C ) :   0.8822 B( 17-C , 18-C ) :   1.1675 B( 17-C , 36-H ) :   0.9101
B( 17-C , 37-H ) :   0.9133 B( 18-C , 38-H ) :   0.9414 B( 18-C , 39-H ) :   0.9465
B( 18-C , 40-H ) :   0.9427

Dispersion correction           -0.069261031
FINAL SINGLE POINT ENERGY     -2929.513235080601

DIPOLE MOMENT
-------------

Method             : SCF
Type of density    : Electron Density
Multiplicity       :   1
Irrep              :   0
Energy             : -2929.6325190032439423 Eh
Relativity type    :
Basis              : AO
                                X                 Y                 Z
Electronic contribution:     -0.450077374      -3.528566832      -2.816015276
Nuclear contribution   :      0.835111953       3.238812937       3.033438671
                        -----------------------------------------
Total Dipole Moment    :      0.385034579      -0.289753895       0.217423395
                        -----------------------------------------
Magnitude (a.u.)       :      0.528660457
Magnitude (Debye)      :      1.343748093

Rotational constants in cm-1:             0.012893             0.005416             0.005397
Rotational constants in MHz :           386.526408           162.353043           161.807771

                             ****ORCA TERMINATED NORMALLY****
TOTAL RUN TIME: 0 days 0 hours 0 minutes 22 seconds 169 msec
