                         Program Version 6.0.0  -   RELEASE  -
|  1> ! r2scan-3c def2/J RI DEFGRID2 scfconv6 printgap
|  2> %output
|  3>     printlevel normal
|  4> end
|  5> * xyz 0 1
|  6> C 1.0132481869 -1.23666329 3.4710151933
|  7> C 1.2823165918 -1.7471818045 2.0709947446
|  8> O 2.1088567221 -0.7711988916 1.4021375356
|  9> P 2.4809385886 -0.9560431577 -0.1262089278
| 10> S 3.1635193506 -2.7129165055 -0.6536449472
| 11> O 3.4920308587 0.2633535548 -0.2030450121
| 12> C 4.504698804 0.3274176647 -1.2224222681
| 13> C 3.9148630023 0.6186456582 -2.5883172794
| 14> S 0.7365682722 -0.3168063414 -1.1776324225
| 15> C 0.4716816681 1.2308704908 -0.2540342699
| 16> S -0.742288763 1.0569193704 1.0729198944
| 17> P -2.4415910415 0.8805346528 -0.2022297011
| 18> S -2.4211267393 1.9892158468 -1.8115476565
| 19> O -3.6758358189 1.0823517397 0.7808884376
| 20> C -4.2367103221 2.3757253582 1.0745325682
| 21> C -3.261909285 3.276509558 1.8043801014
| 22> O -2.5518186772 -0.6553810695 -0.5444179896
| 23> C -2.6655216276 -1.6840576174 0.4711340671
| 24> C -2.0623713689 -2.9588989257 -0.0825345401
| 25> H 0.4806426173 -0.2903629254 3.4225071445
| 26> H 0.4132503982 -1.9647106014 4.0065982876
| 27> H 1.9518815964 -1.0868262426 3.9957420755
| 28> H 0.3520948461 -1.8711194875 1.5079782003
| 29> H 1.8164791336 -2.7021475667 2.0786357324
| 30> H 5.1650560647 1.1288189206 -0.8881261685
| 31> H 5.0486246199 -0.6224543285 -1.2346551035
| 32> H 3.2757315184 -0.2072510523 -2.9006064968
| 33> H 3.323585984 1.5307887308 -2.5639231092
| 34> H 4.7176624389 0.7322633096 -3.3097431752
| 35> H 0.1016666579 1.9635543637 -0.971854417
| 36> H 1.4073475884 1.5473090939 0.2009857558
| 37> H -4.5531323678 2.8343493869 0.1329349777
| 38> H -5.1092790843 2.1445642944 1.6870532585
| 39> H -2.860774517 2.7721224442 2.6798388336
| 40> H -2.4394906598 3.547471557 1.1440554349
| 41> H -3.7752338136 4.1816025876 2.1128302099
| 42> H -2.1461284425 -1.3466782726 1.3737938254
| 43> H -3.7265175624 -1.8073635705 0.6949966968
| 44> H -2.1323875222 -3.743501563 0.6640404159
| 45> H -2.5958193821 -3.263774036 -0.9780602201
| 46> H -1.01773667 -2.8060362202 -0.3470158655
| 47> *
| 48>
| 49>                          ****END OF INPUT****

CARTESIAN COORDINATES (ANGSTROEM)
---------------------------------
  C      1.013248   -1.236663    3.471015
  C      1.282317   -1.747182    2.070995
  O      2.108857   -0.771199    1.402138
  P      2.480939   -0.956043   -0.126209
  S      3.163519   -2.712917   -0.653645
  O      3.492031    0.263354   -0.203045
  C      4.504699    0.327418   -1.222422
  C      3.914863    0.618646   -2.588317
  S      0.736568   -0.316806   -1.177632
  C      0.471682    1.230870   -0.254034
  S     -0.742289    1.056919    1.072920
  P     -2.441591    0.880535   -0.202230
  S     -2.421127    1.989216   -1.811548
  O     -3.675836    1.082352    0.780888
  C     -4.236710    2.375725    1.074533
  C     -3.261909    3.276510    1.804380
  O     -2.551819   -0.655381   -0.544418
  C     -2.665522   -1.684058    0.471134
  C     -2.062371   -2.958899   -0.082535
  H      0.480643   -0.290363    3.422507
  H      0.413250   -1.964711    4.006598
  H      1.951882   -1.086826    3.995742
  H      0.352095   -1.871119    1.507978
  H      1.816479   -2.702148    2.078636
  H      5.165056    1.128819   -0.888126
  H      5.048625   -0.622454   -1.234655
  H      3.275732   -0.207251   -2.900606
  H      3.323586    1.530789   -2.563923
  H      4.717662    0.732263   -3.309743
  H      0.101667    1.963554   -0.971854
  H      1.407348    1.547309    0.200986
  H     -4.553132    2.834349    0.132935
  H     -5.109279    2.144564    1.687053
  H     -2.860775    2.772122    2.679839
  H     -2.439491    3.547472    1.144055
  H     -3.775234    4.181603    2.112830
  H     -2.146128   -1.346678    1.373794
  H     -3.726518   -1.807364    0.694997
  H     -2.132388   -3.743502    0.664040
  H     -2.595819   -3.263774   -0.978060
  H     -1.017737   -2.806036   -0.347016

 Total Charge           Charge          ....    0
 Multiplicity           Mult            ....    1
 Number of Electrons    NEL             ....  202
 Basis Dimension        Dim             ....  539

ORBITAL ENERGIES
----------------

  NO   OCC          E(Eh)            E(eV)
   0   2.0000     -88.580536     -2410.3989
   1   2.0000     -88.575740     -2410.2684
   2   2.0000     -88.525943     -2408.9134
   3   2.0000     -88.523488     -2408.8466
   4   2.0000     -76.918838     -2093.0680
   5   2.0000     -76.915267     -2092.9708
   6   2.0000     -18.999932      -517.0144
   7   2.0000     -18.994729      -516.8729
   8   2.0000     -18.994329      -516.8620
   9   2.0000     -18.994201      -516.8585
  10   2.0000     -10.108570      -275.0682
  11   2.0000     -10.105325      -274.9799
  12   2.0000     -10.105236      -274.9774
  13   2.0000     -10.101350      -274.8717
  14   2.0000     -10.100170      -274.8396
  15   2.0000     -10.034704      -273.0582
  16   2.0000     -10.034164      -273.0435
  17   2.0000     -10.032507      -272.9984
  18   2.0000     -10.028855      -272.8990
  19   2.0000      -7.875036      -214.2906
  20   2.0000      -7.869437      -214.1383
  21   2.0000      -7.820620      -212.8099
  22   2.0000      -7.818001      -212.7386
  23   2.0000      -6.597387      -179.5240
  24   2.0000      -6.593880      -179.4286
  25   2.0000      -5.821750      -158.4179
  26   2.0000      -5.818865      -158.3394
  27   2.0000      -5.816640      -158.2788
  28   2.0000      -5.813032      -158.1806
  29   2.0000      -5.812313      -158.1611
  30   2.0000      -5.806612      -158.0059
  31   2.0000      -5.768341      -156.9646
  32   2.0000      -5.765637      -156.8910
  33   2.0000      -5.760819      -156.7599
  34   2.0000      -5.760644      -156.7551
  35   2.0000      -5.758292      -156.6911
  36   2.0000      -5.758060      -156.6848
  37   2.0000      -4.743244      -129.0702
  38   2.0000      -4.742238      -129.0429
  39   2.0000      -4.740868      -129.0056
  40   2.0000      -4.739209      -128.9604
  41   2.0000      -4.739163      -128.9592
  42   2.0000      -4.737404      -128.9113
  43   2.0000      -1.056255       -28.7422
  44   2.0000      -1.056070       -28.7371
  45   2.0000      -1.014764       -27.6131
  46   2.0000      -1.014464       -27.6050
  47   2.0000      -0.803222       -21.8568
  48   2.0000      -0.762971       -20.7615
  49   2.0000      -0.755963       -20.5708
  50   2.0000      -0.738238       -20.0885
  51   2.0000      -0.731321       -19.9002
  52   2.0000      -0.714921       -19.4540
  53   2.0000      -0.691094       -18.8056
  54   2.0000      -0.671705       -18.2780
  55   2.0000      -0.632323       -17.2064
  56   2.0000      -0.628182       -17.0937
  57   2.0000      -0.608764       -16.5653
  58   2.0000      -0.599727       -16.3194
  59   2.0000      -0.595125       -16.1942
  60   2.0000      -0.535612       -14.5748
  61   2.0000      -0.532130       -14.4800
  62   2.0000      -0.499057       -13.5800
  63   2.0000      -0.493133       -13.4188
  64   2.0000      -0.485695       -13.2164
  65   2.0000      -0.466013       -12.6808
  66   2.0000      -0.461492       -12.5578
  67   2.0000      -0.459145       -12.4940
  68   2.0000      -0.450314       -12.2537
  69   2.0000      -0.447357       -12.1732
  70   2.0000      -0.429792       -11.6952
  71   2.0000      -0.416814       -11.3421
  72   2.0000      -0.412431       -11.2228
  73   2.0000      -0.401298       -10.9199
  74   2.0000      -0.398265       -10.8373
  75   2.0000      -0.387166       -10.5353
  76   2.0000      -0.385542       -10.4911
  77   2.0000      -0.383569       -10.4375
  78   2.0000      -0.373977       -10.1764
  79   2.0000      -0.372644       -10.1402
  80   2.0000      -0.365274        -9.9396
  81   2.0000      -0.361611        -9.8399
  82   2.0000      -0.358653        -9.7594
  83   2.0000      -0.356121        -9.6905
  84   2.0000      -0.347019        -9.4429
  85   2.0000      -0.333522        -9.0756
  86   2.0000      -0.331905        -9.0316
  87   2.0000      -0.323367        -8.7993
  88   2.0000      -0.321661        -8.7528
  89   2.0000      -0.315420        -8.5830
  90   2.0000      -0.308529        -8.3955
  91   2.0000      -0.289569        -7.8796
  92   2.0000      -0.287342        -7.8190
  93   2.0000      -0.283067        -7.7026
  94   2.0000      -0.272185        -7.4065
  95   2.0000      -0.251391        -6.8407
  96   2.0000      -0.234865        -6.3910
  97   2.0000      -0.226669        -6.1680
  98   2.0000      -0.222508        -6.0547
  99   2.0000      -0.220778        -6.0077
 100   2.0000      -0.216561        -5.8929
 101   0.0000      -0.046039        -1.2528
 102   0.0000      -0.030078        -0.8185
 103   0.0000      -0.016533        -0.4499
 104   0.0000       0.003455         0.0940
 105   0.0000       0.006726         0.1830

MULLIKEN ATOMIC CHARGES
-----------------------
   0 C :   -0.460302
   1 C :   -0.109568
   2 O :   -0.299766
   3 P :    0.667271
   4 S :   -0.450720
   5 O :   -0.309938
   6 C :   -0.154855
   7 C :   -0.429123
   8 S :   -0.140914
   9 C :   -0.222935
  10 S :   -0.164748
  11 P :    0.645360
  12 S :   -0.433584
  13 O :   -0.289348
  14 C :   -0.161875
  15 C :   -0.447462
  16 O :   -0.262439
  17 C :   -0.120079
  18 C :   -0.448428
  19 H :    0.162101
  20 H :    0.147499
  21 H :    0.156810
  22 H :    0.148381
  23 H :    0.170190
  24 H :    0.149205
  25 H :    0.173327
  26 H :    0.174581
  27 H :    0.151236
  28 H :    0.148108
  29 H :    0.224234
  30 H :    0.203213
  31 H :    0.174235
  32 H :    0.149195
  33 H :    0.153321
  34 H :    0.179684
  35 H :    0.149440
  36 H :    0.146745
  37 H :    0.156919
  38 H :    0.147027
  39 H :    0.158311
  40 H :    0.169692
Sum of atomic charges:   -0.0000000

LOEWDIN ATOMIC CHARGES
----------------------
   0 C :   -0.390768
   1 C :    0.014316
   2 O :   -0.668085
   3 P :    0.364842
   4 S :   -0.108229
   5 O :   -0.667797
   6 C :    0.022525
   7 C :   -0.402278
   8 S :    0.158417
   9 C :   -0.416075
  10 S :    0.133240
  11 P :    0.375492
  12 S :   -0.096648
  13 O :   -0.663904
  14 C :    0.023699
  15 C :   -0.408511
  16 O :   -0.653170
  17 C :    0.019518
  18 C :   -0.393478
  19 H :    0.161703
  20 H :    0.159798
  21 H :    0.162144
  22 H :    0.174474
  23 H :    0.179816
  24 H :    0.179844
  25 H :    0.180923
  26 H :    0.166702
  27 H :    0.158629
  28 H :    0.159754
  29 H :    0.193625
  30 H :    0.195835
  31 H :    0.180534
  32 H :    0.180200
  33 H :    0.159624
  34 H :    0.166434
  35 H :    0.160178
  36 H :    0.171685
  37 H :    0.175459
  38 H :    0.159466
  39 H :    0.163630
  40 H :    0.166435

  Mayer bond orders larger than 0.100000
B(  0-C ,  1-C ) :   0.9389 B(  0-C , 19-H ) :   0.9697 B(  0-C , 20-H ) :   0.9681
B(  0-C , 21-H ) :   0.9721 B(  1-C ,  2-O ) :   0.7583 B(  1-C , 22-H ) :   0.9445
B(  1-C , 23-H ) :   0.9390 B(  2-O ,  3-P ) :   1.1083 B(  3-P ,  4-S ) :   1.8163
B(  3-P ,  5-O ) :   1.0985 B(  3-P ,  8-S ) :   1.0607 B(  5-O ,  6-C ) :   0.8091
B(  6-C ,  7-C ) :   0.9294 B(  6-C , 24-H ) :   0.9593 B(  6-C , 25-H ) :   0.9649
B(  7-C , 26-H ) :   0.9608 B(  7-C , 27-H ) :   0.9683 B(  7-C , 28-H ) :   0.9608
B(  8-S ,  9-C ) :   0.8916 B(  9-C , 10-S ) :   0.9087 B(  9-C , 29-H ) :   0.9076
B(  9-C , 30-H ) :   0.9154 B( 10-S , 11-P ) :   0.9935 B( 11-P , 12-S ) :   1.8477
B( 11-P , 13-O ) :   1.0375 B( 11-P , 16-O ) :   1.1562 B( 13-O , 14-C ) :   0.8197
B( 14-C , 15-C ) :   0.9163 B( 14-C , 31-H ) :   0.9690 B( 14-C , 32-H ) :   0.9610
B( 15-C , 33-H ) :   0.9677 B( 15-C , 34-H ) :   0.9632 B( 15-C , 35-H ) :   0.9555
B( 16-O , 17-C ) :   0.7341 B( 17-C , 18-C ) :   0.9541 B( 17-C , 36-H ) :   0.9535
B( 17-C , 37-H ) :   0.9461 B( 18-C , 38-H ) :   0.9667 B( 18-C , 39-H ) :   0.9684
B( 18-C , 40-H ) :   0.9615

Dispersion correction           -0.021426823
FINAL SINGLE POINT ENERGY     -2932.465954292018

DIPOLE MOMENT
-------------

Method             : SCF
Type of density    : Electron Density
Multiplicity       :   1
Irrep              :   0
Energy             : -2932.4909906588845843 Eh
Relativity type    :
Basis              : AO
                                X                 Y                 Z
Electronic contribution:      1.772523383      -0.155122272     -10.589300942
Nuclear contribution   :     -2.225883018       0.694949969      12.123773023
                        -----------------------------------------
Total Dipole Moment    :     -0.453359635       0.539827696       1.534472081
                        -----------------------------------------
Magnitude (a.u.)       :      1.688654337
Magnitude (Debye)      :      4.292218215

Rotational constants in cm-1:             0.012200             0.004752             0.004394
Rotational constants in MHz :           365.755436           142.474599           131.728562

                             ****ORCA TERMINATED NORMALLY****
TOTAL RUN TIME: 0 days 0 hours 1 minutes 19 seconds 667 msec
