                         Program Version 6.0.0  -   RELEASE  -
|  1> ! r2scan-3c def2/J RI DEFGRID2 scfconv6 printgap
|  2> %output
|  3>     printlevel normal
|  4> end
|  5> %cpcm
|  6>     smd true
|  7>     smdsolvent "water"
|  8> end
|  9> * xyz 0 1
| 10> C 1.0132481869 -1.23666329 3.4710151933
| 11> C 1.2823165918 -1.7471818045 2.0709947446
| 12> O 2.1088567221 -0.7711988916 1.4021375356
| 13> P 2.4809385886 -0.9560431577 -0.1262089278
| 14> S 3.1635193506 -2.7129165055 -0.6536449472
| 15> O 3.4920308587 0.2633535548 -0.2030450121
| 16> C 4.504698804 0.3274176647 -1.2224222681
| 17> C 3.9148630023 0.6186456582 -2.5883172794
| 18> S 0.7365682722 -0.3168063414 -1.1776324225
| 19> C 0.4716816681 1.2308704908 -0.2540342699
| 20> S -0.742288763 1.0569193704 1.0729198944
| 21> P -2.4415910415 0.8805346528 -0.2022297011
| 22> S -2.4211267393 1.9892158468 -1.8115476565
| 23> O -3.6758358189 1.0823517397 0.7808884376
| 24> C -4.2367103221 2.3757253582 1.0745325682
| 25> C -3.261909285 3.276509558 1.8043801014
| 26> O -2.5518186772 -0.6553810695 -0.5444179896
| 27> C -2.6655216276 -1.6840576174 0.4711340671
| 28> C -2.0623713689 -2.9588989257 -0.0825345401
| 29> H 0.4806426173 -0.2903629254 3.4225071445
| 30> H 0.4132503982 -1.9647106014 4.0065982876
| 31> H 1.9518815964 -1.0868262426 3.9957420755
| 32> H 0.3520948461 -1.8711194875 1.5079782003
| 33> H 1.8164791336 -2.7021475667 2.0786357324
| 34> H 5.1650560647 1.1288189206 -0.8881261685
| 35> H 5.0486246199 -0.6224543285 -1.2346551035
| 36> H 3.2757315184 -0.2072510523 -2.9006064968
| 37> H 3.323585984 1.5307887308 -2.5639231092
| 38> H 4.7176624389 0.7322633096 -3.3097431752
| 39> H 0.1016666579 1.9635543637 -0.971854417
| 40> H 1.4073475884 1.5473090939 0.2009857558
| 41> H -4.5531323678 2.8343493869 0.1329349777
| 42> H -5.1092790843 2.1445642944 1.6870532585
| 43> H -2.860774517 2.7721224442 2.6798388336
| 44> H -2.4394906598 3.547471557 1.1440554349
| 45> H -3.7752338136 4.1816025876 2.1128302099
| 46> H -2.1461284425 -1.3466782726 1.3737938254
| 47> H -3.7265175624 -1.8073635705 0.6949966968
| 48> H -2.1323875222 -3.743501563 0.6640404159
| 49> H -2.5958193821 -3.263774036 -0.9780602201
| 50> H -1.01773667 -2.8060362202 -0.3470158655
| 51> *
| 52>
| 53>                          ****END OF INPUT****

CARTESIAN COORDINATES (ANGSTROEM)
---------------------------------
  C      1.013248   -1.236663    3.471015
  C      1.282317   -1.747182    2.070995
  O      2.108857   -0.771199    1.402138
  P      2.480939   -0.956043   -0.126209
  S      3.163519   -2.712917   -0.653645
  O      3.492031    0.263354   -0.203045
  C      4.504699    0.327418   -1.222422
  C      3.914863    0.618646   -2.588317
  S      0.736568   -0.316806   -1.177632
  C      0.471682    1.230870   -0.254034
  S     -0.742289    1.056919    1.072920
  P     -2.441591    0.880535   -0.202230
  S     -2.421127    1.989216   -1.811548
  O     -3.675836    1.082352    0.780888
  C     -4.236710    2.375725    1.074533
  C     -3.261909    3.276510    1.804380
  O     -2.551819   -0.655381   -0.544418
  C     -2.665522   -1.684058    0.471134
  C     -2.062371   -2.958899   -0.082535
  H      0.480643   -0.290363    3.422507
  H      0.413250   -1.964711    4.006598
  H      1.951882   -1.086826    3.995742
  H      0.352095   -1.871119    1.507978
  H      1.816479   -2.702148    2.078636
  H      5.165056    1.128819   -0.888126
  H      5.048625   -0.622454   -1.234655
  H      3.275732   -0.207251   -2.900606
  H      3.323586    1.530789   -2.563923
  H      4.717662    0.732263   -3.309743
  H      0.101667    1.963554   -0.971854
  H      1.407348    1.547309    0.200986
  H     -4.553132    2.834349    0.132935
  H     -5.109279    2.144564    1.687053
  H     -2.860775    2.772122    2.679839
  H     -2.439491    3.547472    1.144055
  H     -3.775234    4.181603    2.112830
  H     -2.146128   -1.346678    1.373794
  H     -3.726518   -1.807364    0.694997
  H     -2.132388   -3.743502    0.664040
  H     -2.595819   -3.263774   -0.978060
  H     -1.017737   -2.806036   -0.347016

 Total Charge           Charge          ....    0
 Multiplicity           Mult            ....    1
 Number of Electrons    NEL             ....  202
 Basis Dimension        Dim             ....  539

ORBITAL ENERGIES
----------------

  NO   OCC          E(Eh)            E(eV)
   0   2.0000     -88.578844     -2410.3529
   1   2.0000     -88.578187     -2410.3350
   2   2.0000     -88.532791     -2409.0997
   3   2.0000     -88.532132     -2409.0818
   4   2.0000     -76.921256     -2093.1338
   5   2.0000     -76.920285     -2093.1074
   6   2.0000     -18.997716      -516.9541
   7   2.0000     -18.996260      -516.9145
   8   2.0000     -18.996164      -516.9119
   9   2.0000     -18.995210      -516.8859
  10   2.0000     -10.105004      -274.9711
  11   2.0000     -10.092483      -274.6304
  12   2.0000     -10.091481      -274.6031
  13   2.0000     -10.090833      -274.5855
  14   2.0000     -10.090728      -274.5827
  15   2.0000     -10.019921      -272.6559
  16   2.0000     -10.019479      -272.6439
  17   2.0000     -10.019119      -272.6341
  18   2.0000     -10.018716      -272.6231
  19   2.0000      -7.873233      -214.2416
  20   2.0000      -7.872035      -214.2090
  21   2.0000      -7.827838      -213.0063
  22   2.0000      -7.827015      -212.9839
  23   2.0000      -6.599871      -179.5916
  24   2.0000      -6.598953      -179.5666
  25   2.0000      -5.820008      -158.3705
  26   2.0000      -5.819215      -158.3489
  27   2.0000      -5.817100      -158.2913
  28   2.0000      -5.815626      -158.2512
  29   2.0000      -5.810424      -158.1097
  30   2.0000      -5.809228      -158.0771
  31   2.0000      -5.775434      -157.1575
  32   2.0000      -5.774550      -157.1335
  33   2.0000      -5.768023      -156.9559
  34   2.0000      -5.767932      -156.9534
  35   2.0000      -5.767233      -156.9344
  36   2.0000      -5.767177      -156.9329
  37   2.0000      -4.745693      -129.1369
  38   2.0000      -4.744663      -129.1089
  39   2.0000      -4.744249      -129.0976
  40   2.0000      -4.744203      -129.0963
  41   2.0000      -4.743478      -129.0766
  42   2.0000      -4.742579      -129.0521
  43   2.0000      -1.057535       -28.7770
  44   2.0000      -1.055234       -28.7144
  45   2.0000      -1.014958       -27.6184
  46   2.0000      -1.013311       -27.5736
  47   2.0000      -0.801821       -21.8186
  48   2.0000      -0.757776       -20.6201
  49   2.0000      -0.748148       -20.3581
  50   2.0000      -0.725893       -19.7525
  51   2.0000      -0.721463       -19.6320
  52   2.0000      -0.712509       -19.3883
  53   2.0000      -0.693768       -18.8784
  54   2.0000      -0.676011       -18.3952
  55   2.0000      -0.627917       -17.0865
  56   2.0000      -0.621564       -16.9136
  57   2.0000      -0.600366       -16.3368
  58   2.0000      -0.592396       -16.1199
  59   2.0000      -0.589208       -16.0332
  60   2.0000      -0.530038       -14.4231
  61   2.0000      -0.525956       -14.3120
  62   2.0000      -0.491661       -13.3788
  63   2.0000      -0.489627       -13.3234
  64   2.0000      -0.483606       -13.1596
  65   2.0000      -0.458947       -12.4886
  66   2.0000      -0.456779       -12.4296
  67   2.0000      -0.452462       -12.3121
  68   2.0000      -0.443287       -12.0625
  69   2.0000      -0.439209       -11.9515
  70   2.0000      -0.424032       -11.5385
  71   2.0000      -0.412357       -11.2208
  72   2.0000      -0.407336       -11.0842
  73   2.0000      -0.397221       -10.8089
  74   2.0000      -0.392947       -10.6926
  75   2.0000      -0.384166       -10.4537
  76   2.0000      -0.380401       -10.3512
  77   2.0000      -0.377151       -10.2628
  78   2.0000      -0.361209        -9.8290
  79   2.0000      -0.359868        -9.7925
  80   2.0000      -0.355590        -9.6761
  81   2.0000      -0.353555        -9.6207
  82   2.0000      -0.350909        -9.5487
  83   2.0000      -0.346689        -9.4339
  84   2.0000      -0.342578        -9.3220
  85   2.0000      -0.328395        -8.9361
  86   2.0000      -0.324884        -8.8405
  87   2.0000      -0.318229        -8.6595
  88   2.0000      -0.316074        -8.6008
  89   2.0000      -0.307327        -8.3628
  90   2.0000      -0.305000        -8.2995
  91   2.0000      -0.285705        -7.7744
  92   2.0000      -0.283856        -7.7241
  93   2.0000      -0.280317        -7.6278
  94   2.0000      -0.271829        -7.3968
  95   2.0000      -0.251810        -6.8521
  96   2.0000      -0.240512        -6.5447
  97   2.0000      -0.234706        -6.3867
  98   2.0000      -0.231143        -6.2897
  99   2.0000      -0.229954        -6.2574
 100   2.0000      -0.220404        -5.9975
 101   0.0000      -0.047496        -1.2924
 102   0.0000      -0.034565        -0.9406
 103   0.0000      -0.018068        -0.4917
 104   0.0000      -0.000398        -0.0108
 105   0.0000       0.006782         0.1845

MULLIKEN ATOMIC CHARGES
-----------------------
   0 C :   -0.492186
   1 C :   -0.114346
   2 O :   -0.323359
   3 P :    0.700979
   4 S :   -0.508770
   5 O :   -0.329054
   6 C :   -0.147598
   7 C :   -0.470327
   8 S :   -0.170726
   9 C :   -0.227331
  10 S :   -0.148538
  11 P :    0.654921
  12 S :   -0.493794
  13 O :   -0.308759
  14 C :   -0.156084
  15 C :   -0.484782
  16 O :   -0.297043
  17 C :   -0.103031
  18 C :   -0.493126
  19 H :    0.165676
  20 H :    0.173209
  21 H :    0.166648
  22 H :    0.172741
  23 H :    0.176695
  24 H :    0.176086
  25 H :    0.176690
  26 H :    0.167313
  27 H :    0.169322
  28 H :    0.171882
  29 H :    0.236729
  30 H :    0.234109
  31 H :    0.179702
  32 H :    0.176300
  33 H :    0.169287
  34 H :    0.174552
  35 H :    0.173392
  36 H :    0.167853
  37 H :    0.177505
  38 H :    0.172487
  39 H :    0.168428
  40 H :    0.166348
Sum of atomic charges:   -0.0000000

LOEWDIN ATOMIC CHARGES
----------------------
   0 C :   -0.392334
   1 C :    0.018878
   2 O :   -0.679989
   3 P :    0.371616
   4 S :   -0.149293
   5 O :   -0.674981
   6 C :    0.027879
   7 C :   -0.406190
   8 S :    0.142019
   9 C :   -0.408152
  10 S :    0.148913
  11 P :    0.377944
  12 S :   -0.141921
  13 O :   -0.670141
  14 C :    0.029212
  15 C :   -0.410939
  16 O :   -0.676184
  17 C :    0.027930
  18 C :   -0.397478
  19 H :    0.162214
  20 H :    0.170127
  21 H :    0.164238
  22 H :    0.182718
  23 H :    0.182492
  24 H :    0.191425
  25 H :    0.181671
  26 H :    0.161316
  27 H :    0.163474
  28 H :    0.168182
  29 H :    0.197638
  30 H :    0.206641
  31 H :    0.181844
  32 H :    0.191852
  33 H :    0.163900
  34 H :    0.162020
  35 H :    0.168916
  36 H :    0.181076
  37 H :    0.184420
  38 H :    0.170154
  39 H :    0.164006
  40 H :    0.162886

  Mayer bond orders larger than 0.100000
B(  0-C ,  1-C ) :   0.9354 B(  0-C , 19-H ) :   0.9678 B(  0-C , 20-H ) :   0.9612
B(  0-C , 21-H ) :   0.9704 B(  1-C ,  2-O ) :   0.7489 B(  1-C , 22-H ) :   0.9371
B(  1-C , 23-H ) :   0.9351 B(  2-O ,  3-P ) :   1.1212 B(  3-P ,  4-S ) :   1.7800
B(  3-P ,  5-O ) :   1.1087 B(  3-P ,  8-S ) :   1.0661 B(  5-O ,  6-C ) :   0.7980
B(  6-C ,  7-C ) :   0.9185 B(  6-C , 24-H ) :   0.9490 B(  6-C , 25-H ) :   0.9629
B(  7-C , 26-H ) :   0.9631 B(  7-C , 27-H ) :   0.9657 B(  7-C , 28-H ) :   0.9556
B(  8-S ,  9-C ) :   0.8837 B(  9-C , 10-S ) :   0.9049 B(  9-C , 29-H ) :   0.9031
B(  9-C , 30-H ) :   0.9066 B( 10-S , 11-P ) :   1.0131 B( 11-P , 12-S ) :   1.8188
B( 11-P , 13-O ) :   1.0479 B( 11-P , 16-O ) :   1.1609 B( 13-O , 14-C ) :   0.8074
B( 14-C , 15-C ) :   0.9045 B( 14-C , 31-H ) :   0.9676 B( 14-C , 32-H ) :   0.9502
B( 15-C , 33-H ) :   0.9645 B( 15-C , 34-H ) :   0.9646 B( 15-C , 35-H ) :   0.9505
B( 16-O , 17-C ) :   0.7294 B( 17-C , 18-C ) :   0.9412 B( 17-C , 36-H ) :   0.9439
B( 17-C , 37-H ) :   0.9369 B( 18-C , 38-H ) :   0.9597 B( 18-C , 39-H ) :   0.9688
B( 18-C , 40-H ) :   0.9648

Dispersion correction           -0.021426823
FINAL SINGLE POINT ENERGY     -2932.476310409510

DIPOLE MOMENT
-------------

Method             : SCF
Type of density    : Electron Density
Multiplicity       :   1
Irrep              :   0
Energy             : -2932.5013467763774315 Eh
Relativity type    :
Basis              : AO
                                X                 Y                 Z
Electronic contribution:      1.651947683       0.088004764      -9.800883653
Nuclear contribution   :     -2.225883018       0.694949969      12.123773023
                        -----------------------------------------
Total Dipole Moment    :     -0.573935334       0.782954733       2.322889370
                        -----------------------------------------
Magnitude (a.u.)       :      2.517585134
Magnitude (Debye)      :      6.399192859

Rotational constants in cm-1:             0.012200             0.004752             0.004394
Rotational constants in MHz :           365.755436           142.474599           131.728562

                             ****ORCA TERMINATED NORMALLY****
TOTAL RUN TIME: 0 days 0 hours 1 minutes 55 seconds 389 msec
