                         Program Version 6.0.0  -   RELEASE  -
|  1> ! pbe def2-sv(p) def2/J RI DEFGRID1 loosescf d4 GCP(DFT/SV(P)) printgap
|  2> %output
|  3>     printlevel normal
|  4> end
|  5> * xyz 0 1
|  6> C 2.868956069 -2.7491163877 1.7456870439
|  7> C 1.5910439364 -2.6864763643 0.9377451895
|  8> O 1.2661479171 -1.330769975 0.5564760589
|  9> P 2.1593690057 -0.5198393964 -0.4650731835
| 10> S 2.9312623194 -1.5448688824 -1.9436415866
| 11> O 3.1777893304 0.219915103 0.517694467
| 12> C 4.2745269927 1.0054471868 0.0121012376
| 13> C 5.5475704227 0.1826205695 -0.0277480158
| 14> S 0.817852316 1.0073254187 -1.0567934511
| 15> C 0.3532026148 1.6411931905 0.5862897661
| 16> S -0.8556662545 0.6166553873 1.4539242251
| 17> P -2.3802319647 0.7146734233 -0.0305957342
| 18> S -2.5466680661 2.4115559482 -0.9874444205
| 19> O -3.6485618801 0.1529944324 0.7449855027
| 20> C -4.1137575542 0.6225533361 2.0259122628
| 21> C -4.3225882751 2.1213718012 2.0641952039
| 22> O -2.0955620385 -0.4466917514 -1.0626181516
| 23> C -1.9435398369 -1.8356310339 -0.6914567946
| 24> C -3.225676938 -2.6014918886 -0.9433609628
| 25> H 3.0230073128 -3.7645814275 2.0969576796
| 26> H 3.7125874193 -2.4583800163 1.121498124
| 27> H 2.8087666604 -2.07521883 2.5961008164
| 28> H 0.7262119537 -3.0063818193 1.5202868333
| 29> H 1.6774351771 -3.2896616634 0.0286071599
| 30> H 4.0217414946 1.3823558842 -0.9840663928
| 31> H 4.3662620664 1.8430113213 0.7064155136
| 32> H 5.7664265459 -0.2145238143 0.9594170198
| 33> H 5.438133803 -0.6436970736 -0.7268756517
| 34> H 6.3699143628 0.8119389685 -0.3523088776
| 35> H -0.0797452886 2.6237857219 0.4007383225
| 36> H 1.2311502963 1.6993975055 1.224536664
| 37> H -5.0534028238 0.0861475585 2.16939421
| 38> H -3.3884713245 0.3138535118 2.7837669295
| 39> H -4.7531069139 2.4007528743 3.020384396
| 40> H -3.3721559393 2.6373914002 1.9370282205
| 41> H -4.9889843893 2.4326298945 1.2632174754
| 42> H -1.1285587874 -2.2025477352 -1.3210645545
| 43> H -1.6461813235 -1.8923139031 0.3600711232
| 44> H -3.0656021856 -3.6497210132 -0.7112364526
| 45> H -4.0247612705 -2.2096969924 -0.3197443326
| 46> H -3.5160416525 -2.5041832941 -1.9858431717
| 47> *
| 48>
| 49>                          ****END OF INPUT****

CARTESIAN COORDINATES (ANGSTROEM)
---------------------------------
  C      2.868956   -2.749116    1.745687
  C      1.591044   -2.686476    0.937745
  O      1.266148   -1.330770    0.556476
  P      2.159369   -0.519839   -0.465073
  S      2.931262   -1.544869   -1.943642
  O      3.177789    0.219915    0.517694
  C      4.274527    1.005447    0.012101
  C      5.547570    0.182621   -0.027748
  S      0.817852    1.007325   -1.056793
  C      0.353203    1.641193    0.586290
  S     -0.855666    0.616655    1.453924
  P     -2.380232    0.714673   -0.030596
  S     -2.546668    2.411556   -0.987444
  O     -3.648562    0.152994    0.744986
  C     -4.113758    0.622553    2.025912
  C     -4.322588    2.121372    2.064195
  O     -2.095562   -0.446692   -1.062618
  C     -1.943540   -1.835631   -0.691457
  C     -3.225677   -2.601492   -0.943361
  H      3.023007   -3.764581    2.096958
  H      3.712587   -2.458380    1.121498
  H      2.808767   -2.075219    2.596101
  H      0.726212   -3.006382    1.520287
  H      1.677435   -3.289662    0.028607
  H      4.021741    1.382356   -0.984066
  H      4.366262    1.843011    0.706416
  H      5.766427   -0.214524    0.959417
  H      5.438134   -0.643697   -0.726876
  H      6.369914    0.811939   -0.352309
  H     -0.079745    2.623786    0.400738
  H      1.231150    1.699398    1.224537
  H     -5.053403    0.086148    2.169394
  H     -3.388471    0.313854    2.783767
  H     -4.753107    2.400753    3.020384
  H     -3.372156    2.637391    1.937028
  H     -4.988984    2.432630    1.263217
  H     -1.128559   -2.202548   -1.321065
  H     -1.646181   -1.892314    0.360071
  H     -3.065602   -3.649721   -0.711236
  H     -4.024761   -2.209697   -0.319744
  H     -3.516042   -2.504183   -1.985843

 Total Charge           Charge          ....    0
 Multiplicity           Mult            ....    1
 Number of Electrons    NEL             ....  202
 Basis Dimension        Dim             ....  334

ORBITAL ENERGIES
----------------

  NO   OCC          E(Eh)            E(eV)
   0   2.0000     -88.042488     -2395.7579
   1   2.0000     -88.041461     -2395.7299
   2   2.0000     -87.990016     -2394.3301
   3   2.0000     -87.981180     -2394.0896
   4   2.0000     -76.427982     -2079.7111
   5   2.0000     -76.425654     -2079.6478
   6   2.0000     -18.796994      -511.4922
   7   2.0000     -18.796691      -511.4840
   8   2.0000     -18.795146      -511.4419
   9   2.0000     -18.786268      -511.2003
  10   2.0000      -9.960929      -271.0507
  11   2.0000      -9.958622      -270.9879
  12   2.0000      -9.958277      -270.9785
  13   2.0000      -9.957844      -270.9667
  14   2.0000      -9.950075      -270.7553
  15   2.0000      -9.889513      -269.1073
  16   2.0000      -9.885114      -268.9876
  17   2.0000      -9.884528      -268.9717
  18   2.0000      -9.883029      -268.9309
  19   2.0000      -7.687486      -209.1871
  20   2.0000      -7.686339      -209.1559
  21   2.0000      -7.635152      -207.7631
  22   2.0000      -7.626539      -207.5287
  23   2.0000      -6.425852      -174.8563
  24   2.0000      -6.422613      -174.7682
  25   2.0000      -5.715186      -155.5181
  26   2.0000      -5.714614      -155.5026
  27   2.0000      -5.711997      -155.4313
  28   2.0000      -5.710626      -155.3940
  29   2.0000      -5.704626      -155.2308
  30   2.0000      -5.703166      -155.1911
  31   2.0000      -5.664056      -154.1268
  32   2.0000      -5.655799      -153.9021
  33   2.0000      -5.655646      -153.8980
  34   2.0000      -5.655324      -153.8892
  35   2.0000      -5.647084      -153.6650
  36   2.0000      -5.646551      -153.6505
  37   2.0000      -4.648310      -126.4869
  38   2.0000      -4.647846      -126.4743
  39   2.0000      -4.646174      -126.4288
  40   2.0000      -4.645477      -126.4098
  41   2.0000      -4.644681      -126.3882
  42   2.0000      -4.642622      -126.3322
  43   2.0000      -0.991357       -26.9762
  44   2.0000      -0.987625       -26.8746
  45   2.0000      -0.950420       -25.8622
  46   2.0000      -0.943294       -25.6683
  47   2.0000      -0.764146       -20.7935
  48   2.0000      -0.722740       -19.6667
  49   2.0000      -0.710819       -19.3424
  50   2.0000      -0.691528       -18.8174
  51   2.0000      -0.690697       -18.7948
  52   2.0000      -0.675972       -18.3941
  53   2.0000      -0.654582       -17.8121
  54   2.0000      -0.639030       -17.3889
  55   2.0000      -0.600486       -16.3401
  56   2.0000      -0.589993       -16.0545
  57   2.0000      -0.574532       -15.6338
  58   2.0000      -0.572005       -15.5650
  59   2.0000      -0.568186       -15.4611
  60   2.0000      -0.507506       -13.8099
  61   2.0000      -0.499360       -13.5883
  62   2.0000      -0.480158       -13.0658
  63   2.0000      -0.473478       -12.8840
  64   2.0000      -0.462634       -12.5889
  65   2.0000      -0.447692       -12.1823
  66   2.0000      -0.442720       -12.0470
  67   2.0000      -0.435670       -11.8552
  68   2.0000      -0.433012       -11.7828
  69   2.0000      -0.414009       -11.2658
  70   2.0000      -0.409920       -11.1545
  71   2.0000      -0.407746       -11.0953
  72   2.0000      -0.398661       -10.8481
  73   2.0000      -0.391444       -10.6517
  74   2.0000      -0.382601       -10.4111
  75   2.0000      -0.369413       -10.0522
  76   2.0000      -0.363830        -9.9003
  77   2.0000      -0.360867        -9.8197
  78   2.0000      -0.354826        -9.6553
  79   2.0000      -0.353478        -9.6186
  80   2.0000      -0.349205        -9.5024
  81   2.0000      -0.347600        -9.4587
  82   2.0000      -0.342766        -9.3271
  83   2.0000      -0.339168        -9.2292
  84   2.0000      -0.333721        -9.0810
  85   2.0000      -0.325634        -8.8609
  86   2.0000      -0.316805        -8.6207
  87   2.0000      -0.299946        -8.1620
  88   2.0000      -0.298099        -8.1117
  89   2.0000      -0.295699        -8.0464
  90   2.0000      -0.285558        -7.7704
  91   2.0000      -0.279395        -7.6027
  92   2.0000      -0.276069        -7.5122
  93   2.0000      -0.266944        -7.2639
  94   2.0000      -0.257586        -7.0093
  95   2.0000      -0.231798        -6.3075
  96   2.0000      -0.220006        -5.9867
  97   2.0000      -0.209586        -5.7031
  98   2.0000      -0.204468        -5.5639
  99   2.0000      -0.199088        -5.4175
 100   2.0000      -0.195794        -5.3278
 101   0.0000      -0.041085        -1.1180
 102   0.0000      -0.021858        -0.5948
 103   0.0000      -0.009164        -0.2494
 104   0.0000       0.000297         0.0081
 105   0.0000       0.007475         0.2034

MULLIKEN ATOMIC CHARGES
-----------------------
   0 C :   -0.309927
   1 C :   -0.010929
   2 O :   -0.368551
   3 P :    0.596648
   4 S :   -0.322808
   5 O :   -0.382401
   6 C :   -0.012504
   7 C :   -0.293625
   8 S :   -0.042597
   9 C :   -0.356443
  10 S :   -0.102184
  11 P :    0.593173
  12 S :   -0.308254
  13 O :   -0.380100
  14 C :   -0.010743
  15 C :   -0.307793
  16 O :   -0.343754
  17 C :   -0.023609
  18 C :   -0.283183
  19 H :    0.112863
  20 H :    0.130228
  21 H :    0.117239
  22 H :    0.105067
  23 H :    0.114502
  24 H :    0.106388
  25 H :    0.104708
  26 H :    0.114033
  27 H :    0.131156
  28 H :    0.110640
  29 H :    0.195046
  30 H :    0.181370
  31 H :    0.109074
  32 H :    0.111378
  33 H :    0.110835
  34 H :    0.124195
  35 H :    0.128614
  36 H :    0.116858
  37 H :    0.101836
  38 H :    0.105270
  39 H :    0.116945
  40 H :    0.121338
Sum of atomic charges:    0.0000000

LOEWDIN ATOMIC CHARGES
----------------------
   0 C :   -0.365366
   1 C :   -0.115940
   2 O :   -0.241091
   3 P :    0.561751
   4 S :   -0.321391
   5 O :   -0.252382
   6 C :   -0.117275
   7 C :   -0.363155
   8 S :    0.107375
   9 C :   -0.479806
  10 S :    0.069594
  11 P :    0.565906
  12 S :   -0.308630
  13 O :   -0.246114
  14 C :   -0.115060
  15 C :   -0.369352
  16 O :   -0.228796
  17 C :   -0.117776
  18 C :   -0.358523
  19 H :    0.131275
  20 H :    0.124417
  21 H :    0.126728
  22 H :    0.116371
  23 H :    0.111899
  24 H :    0.110408
  25 H :    0.116618
  26 H :    0.124434
  27 H :    0.125242
  28 H :    0.130144
  29 H :    0.133572
  30 H :    0.131643
  31 H :    0.120877
  32 H :    0.107376
  33 H :    0.129908
  34 H :    0.120632
  35 H :    0.131273
  36 H :    0.120995
  37 H :    0.100787
  38 H :    0.127271
  39 H :    0.124523
  40 H :    0.129639

  Mayer bond orders larger than 0.100000
B(  0-C ,  1-C ) :   1.1669 B(  0-C , 19-H ) :   0.9369 B(  0-C , 20-H ) :   0.9333
B(  0-C , 21-H ) :   0.9459 B(  1-C ,  2-O ) :   0.9025 B(  1-C , 22-H ) :   0.9306
B(  1-C , 23-H ) :   0.9170 B(  2-O ,  3-P ) :   1.1156 B(  3-P ,  4-S ) :   1.6369
B(  3-P ,  5-O ) :   1.0629 B(  3-P ,  8-S ) :   0.9831 B(  5-O ,  6-C ) :   0.9038
B(  6-C ,  7-C ) :   1.1713 B(  6-C , 24-H ) :   0.9128 B(  6-C , 25-H ) :   0.9343
B(  7-C , 26-H ) :   0.9449 B(  7-C , 27-H ) :   0.9314 B(  7-C , 28-H ) :   0.9395
B(  8-S ,  9-C ) :   0.9905 B(  9-C , 10-S ) :   1.0013 B(  9-C , 29-H ) :   0.8846
B(  9-C , 30-H ) :   0.8952 B( 10-S , 11-P ) :   0.9510 B( 10-S , 12-S ) :   0.1110
B( 11-P , 12-S ) :   1.6434 B( 11-P , 13-O ) :   1.0802 B( 11-P , 16-O ) :   1.1357
B( 13-O , 14-C ) :   0.9121 B( 14-C , 15-C ) :   1.1677 B( 14-C , 31-H ) :   0.9330
B( 14-C , 32-H ) :   0.9264 B( 15-C , 33-H ) :   0.9345 B( 15-C , 34-H ) :   0.9319
B( 15-C , 35-H ) :   0.9426 B( 16-O , 17-C ) :   0.8960 B( 17-C , 18-C ) :   1.1593
B( 17-C , 36-H ) :   0.9311 B( 17-C , 37-H ) :   0.9111 B( 18-C , 38-H ) :   0.9409
B( 18-C , 39-H ) :   0.9432 B( 18-C , 40-H ) :   0.9465

Dispersion correction           -0.065356306
FINAL SINGLE POINT ENERGY     -2929.518283037311

DIPOLE MOMENT
-------------

Method             : SCF
Type of density    : Electron Density
Multiplicity       :   1
Irrep              :   0
Energy             : -2929.6384678191311650 Eh
Relativity type    :
Basis              : AO
                                X                 Y                 Z
Electronic contribution:     -3.758068298      10.492815923     -13.223901288
Nuclear contribution   :      4.037654896     -11.224496559      15.338620126
                        -----------------------------------------
Total Dipole Moment    :      0.279586599      -0.731680637       2.114718837
                        -----------------------------------------
Magnitude (a.u.)       :      2.255118840
Magnitude (Debye)      :      5.732056557

Rotational constants in cm-1:             0.013494             0.004690             0.004367
Rotational constants in MHz :           404.526361           140.591773           130.929345

                             ****ORCA TERMINATED NORMALLY****
TOTAL RUN TIME: 0 days 0 hours 0 minutes 21 seconds 82 msec
