                         Program Version 6.0.0  -   RELEASE  -
|  1> ! pbe def2-sv(p) def2/J RI DEFGRID1 loosescf d4 GCP(DFT/SV(P)) printgap
|  2> %output
|  3>     printlevel normal
|  4> end
|  5> * xyz 0 1
|  6> C 1.0471379375 1.3510627765 7.31708e-05
|  7> C 0.3623711375 0.1892464379 0.0001046974
|  8> C 1.0558142098 -1.0866660583 4.48109e-05
|  9> O 0.530886801 -2.1804634924 2.2605e-05
| 10> N 2.4353259805 -0.9527426675 5.187e-07
| 11> C 3.1610075733 0.2129401201 5.0033e-06
| 12> O 4.3747065564 0.2320607737 -8.44058e-05
| 13> N 2.4050653487 1.3592557079 9.5595e-06
| 14> I -1.73637094 0.1159711838 -1.53435e-05
| 15> H 0.5545342955 2.31217438 0.0001312157
| 16> H 2.9733286062 -1.8151927213 -3.79472e-05
| 17> H 2.9133528887 2.2372653806 -3.3607e-05
| 18> *
| 19>
| 20>                          ****END OF INPUT****

CARTESIAN COORDINATES (ANGSTROEM)
---------------------------------
  C      1.047138    1.351063    0.000073
  C      0.362371    0.189246    0.000105
  C      1.055814   -1.086666    0.000045
  O      0.530887   -2.180463    0.000023
  N      2.435326   -0.952743    0.000001
  C      3.161008    0.212940    0.000005
  O      4.374707    0.232061   -0.000084
  N      2.405065    1.359256    0.000010
  I     -1.736371    0.115971   -0.000015
  H      0.554534    2.312174    0.000131
  H      2.973329   -1.815193   -0.000038
  H      2.913353    2.237265   -0.000034

 Total Charge           Charge          ....    0
 Multiplicity           Mult            ....    1
 Number of Electrons    NEL             ....   82
 Basis Dimension        Dim             ....  144

ORBITAL ENERGIES
----------------

  NO   OCC          E(Eh)            E(eV)
   0   2.0000     -18.752884      -510.2919
   1   2.0000     -18.750646      -510.2310
   2   2.0000     -14.077960      -383.0808
   3   2.0000     -14.055563      -382.4713
   4   2.0000     -10.041264      -273.2367
   5   2.0000     -10.011598      -272.4294
   6   2.0000      -9.981245      -271.6035
   7   2.0000      -9.953417      -270.8463
   8   2.0000      -6.617062      -180.0594
   9   2.0000      -4.690415      -127.6327
  10   2.0000      -4.671485      -127.1176
  11   2.0000      -4.670791      -127.0987
  12   2.0000      -1.826290       -49.6959
  13   2.0000      -1.821166       -49.5565
  14   2.0000      -1.820686       -49.5434
  15   2.0000      -1.805502       -49.1302
  16   2.0000      -1.805472       -49.1294
  17   2.0000      -0.995836       -27.0981
  18   2.0000      -0.959019       -26.0962
  19   2.0000      -0.907194       -24.6860
  20   2.0000      -0.857345       -23.3295
  21   2.0000      -0.744908       -20.2700
  22   2.0000      -0.657496       -17.8914
  23   2.0000      -0.634413       -17.2633
  24   2.0000      -0.617648       -16.8070
  25   2.0000      -0.535698       -14.5771
  26   2.0000      -0.529157       -14.3991
  27   2.0000      -0.488494       -13.2926
  28   2.0000      -0.450701       -12.2642
  29   2.0000      -0.432236       -11.7618
  30   2.0000      -0.390438       -10.6244
  31   2.0000      -0.379086       -10.3154
  32   2.0000      -0.376520       -10.2456
  33   2.0000      -0.353318        -9.6143
  34   2.0000      -0.347643        -9.4598
  35   2.0000      -0.265703        -7.2301
  36   2.0000      -0.260213        -7.0807
  37   2.0000      -0.256566        -6.9815
  38   2.0000      -0.238499        -6.4899
  39   2.0000      -0.226502        -6.1634
  40   2.0000      -0.212293        -5.7768
  41   0.0000      -0.084424        -2.2973
  42   0.0000      -0.070891        -1.9290
  43   0.0000      -0.031864        -0.8671
  44   0.0000       0.010574         0.2877
  45   0.0000       0.047317         1.2876

MULLIKEN ATOMIC CHARGES
-----------------------
   0 C :    0.044713
   1 C :   -0.302974
   2 C :    0.182291
   3 O :   -0.153725
   4 N :   -0.239311
   5 C :    0.138556
   6 O :   -0.180071
   7 N :   -0.202244
   8 I :    0.101572
   9 H :    0.097616
  10 H :    0.254493
  11 H :    0.259083
Sum of atomic charges:   -0.0000000

LOEWDIN ATOMIC CHARGES
----------------------
   0 C :   -0.067474
   1 C :   -0.267444
   2 C :    0.010786
   3 O :   -0.159266
   4 N :   -0.111808
   5 C :    0.027161
   6 O :   -0.187773
   7 N :   -0.091957
   8 I :    0.188852
   9 H :    0.139844
  10 H :    0.259243
  11 H :    0.259836

  Mayer bond orders larger than 0.100000
B(  0-C ,  1-C ) :   1.6739 B(  0-C ,  7-N ) :   1.1939 B(  0-C ,  9-H ) :   0.9255
B(  1-C ,  2-C ) :   1.0092 B(  1-C ,  8-I ) :   1.0474 B(  2-C ,  3-O ) :   2.1596
B(  2-C ,  4-N ) :   1.0779 B(  4-N ,  5-C ) :   1.1043 B(  4-N , 10-H ) :   0.8283
B(  5-C ,  6-O ) :   2.1402 B(  5-C ,  7-N ) :   1.0744 B(  7-N , 11-H ) :   0.8431

Dispersion correction           -0.015594714
FINAL SINGLE POINT ENERGY      -711.100511410452

DIPOLE MOMENT
-------------

Method             : SCF
Type of density    : Electron Density
Multiplicity       :   1
Irrep              :   0
Energy             :  -711.1396850429890719 Eh
Relativity type    :
Basis              : AO
                                X                 Y                 Z
Electronic contribution:   -132.074935840       7.318507187      -0.001144845
Nuclear contribution   :    132.118849659      -5.874885249       0.001168334
                        -----------------------------------------
Total Dipole Moment    :      0.043913819       1.443621938       0.000023488
                        -----------------------------------------
Magnitude (a.u.)       :      1.444289695
Magnitude (Debye)      :      3.671092659

Rotational constants in cm-1:             0.100304             0.016473             0.014150
Rotational constants in MHz :          3007.034937           493.861918           424.194172

                             ****ORCA TERMINATED NORMALLY****
TOTAL RUN TIME: 0 days 0 hours 0 minutes 13 seconds 621 msec
