                         Program Version 6.0.0  -   RELEASE  -
|  1> ! pbe def2-sv(p) def2/J RI DEFGRID1 loosescf d4 GCP(DFT/SV(P)) printgap
|  2> %output
|  3>     printlevel normal
|  4> end
|  5> * xyz 0 1
|  6> C 3.3575485377 1.9476483607 -1.776894657
|  7> C 2.101018876 1.1104058257 -1.6721296099
|  8> O 1.5123730139 1.2377049355 -0.3518254528
|  9> P 1.7241076265 0.1606900234 0.7758412971
| 10> S 1.1161713218 0.7189244363 2.5473509424
| 11> O 3.2941259638 -0.0856344749 0.6818026647
| 12> C 3.9609817165 -0.9807804864 1.5933279011
| 13> C 5.4543669381 -0.7921860751 1.4202227315
| 14> S 0.9814452948 -1.716773355 0.0728279884
| 15> C -0.4102651626 -1.9659520225 1.2056480981
| 16> S -2.0327461689 -1.9225077835 0.3964492089
| 17> P -1.9174906286 -0.0525931558 -0.6081203305
| 18> S -1.1040594247 -0.0428514891 -2.3947880906
| 19> O -1.2218901259 0.8360546305 0.5091680106
| 20> C -1.6297557352 2.1872166629 0.8256488427
| 21> C -1.3241914719 3.1443893288 -0.3059990492
| 22> O -3.4116271832 0.4824467661 -0.5925304613
| 23> C -4.3376318252 0.1592328807 -1.6447476361
| 24> C -4.7635557188 -1.2927734014 -1.5874927758
| 25> H 4.1111276968 1.5838109898 -1.0836580039
| 26> H 3.7385163349 1.8818888036 -2.791155215
| 27> H 3.1352272583 2.9852012526 -1.5432561943
| 28> H 2.3032563828 0.0547430626 -1.8718896435
| 29> H 1.3249673929 1.4565754725 -2.358321043
| 30> H 3.6401799614 -0.7400682715 2.6121958286
| 31> H 3.6566996313 -2.0039063906 1.3544776797
| 32> H 5.7311807448 0.2322352752 1.6528471494
| 33> H 5.9769457079 -1.4651756229 2.0918011619
| 34> H 5.7407635465 -1.0126178842 0.3959368735
| 35> H -0.3598788014 -1.204609803 1.9890601854
| 36> H -0.3244968472 -2.9668396309 1.622195593
| 37> H -2.694817285 2.1764670329 1.0625489883
| 38> H -1.0501445488 2.421718365 1.7210162346
| 39> H -1.8671597309 2.8483045452 -1.2031051891
| 40> H -1.6241292231 4.1473029287 -0.0191421467
| 41> H -0.258784743 3.133722403 -0.5237726338
| 42> H -5.1762062277 0.8354969078 -1.4745967929
| 43> H -3.8627302474 0.3849636551 -2.6054980248
| 44> H -5.5207292193 -1.4768539788 -2.3427360777
| 45> H -3.9061114753 -1.9375877409 -1.7805254303
| 46> H -5.1634165055 -1.5326891044 -0.6058507421
| 47> *
| 48>
| 49>                          ****END OF INPUT****

CARTESIAN COORDINATES (ANGSTROEM)
---------------------------------
  C      3.357549    1.947648   -1.776895
  C      2.101019    1.110406   -1.672130
  O      1.512373    1.237705   -0.351825
  P      1.724108    0.160690    0.775841
  S      1.116171    0.718924    2.547351
  O      3.294126   -0.085634    0.681803
  C      3.960982   -0.980780    1.593328
  C      5.454367   -0.792186    1.420223
  S      0.981445   -1.716773    0.072828
  C     -0.410265   -1.965952    1.205648
  S     -2.032746   -1.922508    0.396449
  P     -1.917491   -0.052593   -0.608120
  S     -1.104059   -0.042851   -2.394788
  O     -1.221890    0.836055    0.509168
  C     -1.629756    2.187217    0.825649
  C     -1.324191    3.144389   -0.305999
  O     -3.411627    0.482447   -0.592530
  C     -4.337632    0.159233   -1.644748
  C     -4.763556   -1.292773   -1.587493
  H      4.111128    1.583811   -1.083658
  H      3.738516    1.881889   -2.791155
  H      3.135227    2.985201   -1.543256
  H      2.303256    0.054743   -1.871890
  H      1.324967    1.456575   -2.358321
  H      3.640180   -0.740068    2.612196
  H      3.656700   -2.003906    1.354478
  H      5.731181    0.232235    1.652847
  H      5.976946   -1.465176    2.091801
  H      5.740764   -1.012618    0.395937
  H     -0.359879   -1.204610    1.989060
  H     -0.324497   -2.966840    1.622196
  H     -2.694817    2.176467    1.062549
  H     -1.050145    2.421718    1.721016
  H     -1.867160    2.848305   -1.203105
  H     -1.624129    4.147303   -0.019142
  H     -0.258785    3.133722   -0.523773
  H     -5.176206    0.835497   -1.474597
  H     -3.862730    0.384964   -2.605498
  H     -5.520729   -1.476854   -2.342736
  H     -3.906111   -1.937588   -1.780525
  H     -5.163417   -1.532689   -0.605851

 Total Charge           Charge          ....    0
 Multiplicity           Mult            ....    1
 Number of Electrons    NEL             ....  202
 Basis Dimension        Dim             ....  334

ORBITAL ENERGIES
----------------

  NO   OCC          E(Eh)            E(eV)
   0   2.0000     -88.040475     -2395.7031
   1   2.0000     -88.035273     -2395.5616
   2   2.0000     -87.985827     -2394.2161
   3   2.0000     -87.981837     -2394.1075
   4   2.0000     -76.425383     -2079.6404
   5   2.0000     -76.424836     -2079.6255
   6   2.0000     -18.795180      -511.4428
   7   2.0000     -18.792704      -511.3755
   8   2.0000     -18.790004      -511.3020
   9   2.0000     -18.784123      -511.1420
  10   2.0000      -9.953583      -270.8508
  11   2.0000      -9.951936      -270.8060
  12   2.0000      -9.951754      -270.8010
  13   2.0000      -9.948692      -270.7177
  14   2.0000      -9.943565      -270.5782
  15   2.0000      -9.889303      -269.1016
  16   2.0000      -9.886690      -269.0305
  17   2.0000      -9.881965      -268.9020
  18   2.0000      -9.874738      -268.7053
  19   2.0000      -7.685115      -209.1226
  20   2.0000      -7.680861      -209.0069
  21   2.0000      -7.630884      -207.6469
  22   2.0000      -7.626858      -207.5374
  23   2.0000      -6.422742      -174.7717
  24   2.0000      -6.422114      -174.7546
  25   2.0000      -5.712930      -155.4567
  26   2.0000      -5.709628      -155.3669
  27   2.0000      -5.709001      -155.3498
  28   2.0000      -5.705390      -155.2516
  29   2.0000      -5.702192      -155.1645
  30   2.0000      -5.697485      -155.0365
  31   2.0000      -5.659908      -154.0139
  32   2.0000      -5.655642      -153.8978
  33   2.0000      -5.651452      -153.7838
  34   2.0000      -5.650900      -153.7688
  35   2.0000      -5.647527      -153.6770
  36   2.0000      -5.647117      -153.6659
  37   2.0000      -4.645535      -126.4114
  38   2.0000      -4.645411      -126.4080
  39   2.0000      -4.644391      -126.3803
  40   2.0000      -4.643785      -126.3638
  41   2.0000      -4.643127      -126.3459
  42   2.0000      -4.642050      -126.3166
  43   2.0000      -0.988854       -26.9081
  44   2.0000      -0.986537       -26.8450
  45   2.0000      -0.943914       -25.6852
  46   2.0000      -0.941143       -25.6098
  47   2.0000      -0.758495       -20.6397
  48   2.0000      -0.718958       -19.5638
  49   2.0000      -0.706253       -19.2181
  50   2.0000      -0.690393       -18.7866
  51   2.0000      -0.687024       -18.6949
  52   2.0000      -0.669622       -18.2213
  53   2.0000      -0.648383       -17.6434
  54   2.0000      -0.636886       -17.3306
  55   2.0000      -0.593999       -16.1635
  56   2.0000      -0.586290       -15.9538
  57   2.0000      -0.573006       -15.5923
  58   2.0000      -0.567012       -15.4292
  59   2.0000      -0.561106       -15.2685
  60   2.0000      -0.508353       -13.8330
  61   2.0000      -0.494726       -13.4622
  62   2.0000      -0.479106       -13.0371
  63   2.0000      -0.468744       -12.7552
  64   2.0000      -0.452607       -12.3161
  65   2.0000      -0.446236       -12.1427
  66   2.0000      -0.440472       -11.9859
  67   2.0000      -0.428984       -11.6732
  68   2.0000      -0.426482       -11.6052
  69   2.0000      -0.413250       -11.2451
  70   2.0000      -0.409133       -11.1331
  71   2.0000      -0.401297       -10.9199
  72   2.0000      -0.388168       -10.5626
  73   2.0000      -0.385265       -10.4836
  74   2.0000      -0.378816       -10.3081
  75   2.0000      -0.366343        -9.9687
  76   2.0000      -0.364090        -9.9074
  77   2.0000      -0.356019        -9.6878
  78   2.0000      -0.355708        -9.6793
  79   2.0000      -0.350717        -9.5435
  80   2.0000      -0.344176        -9.3655
  81   2.0000      -0.341355        -9.2887
  82   2.0000      -0.339766        -9.2455
  83   2.0000      -0.333745        -9.0817
  84   2.0000      -0.333084        -9.0637
  85   2.0000      -0.315861        -8.5950
  86   2.0000      -0.313926        -8.5424
  87   2.0000      -0.300372        -8.1735
  88   2.0000      -0.298412        -8.1202
  89   2.0000      -0.293313        -7.9815
  90   2.0000      -0.283433        -7.7126
  91   2.0000      -0.273796        -7.4504
  92   2.0000      -0.266505        -7.2520
  93   2.0000      -0.258524        -7.0348
  94   2.0000      -0.254991        -6.9387
  95   2.0000      -0.234870        -6.3911
  96   2.0000      -0.221139        -6.0175
  97   2.0000      -0.206805        -5.6275
  98   2.0000      -0.202796        -5.5184
  99   2.0000      -0.192062        -5.2263
 100   2.0000      -0.189060        -5.1446
 101   0.0000      -0.046619        -1.2686
 102   0.0000      -0.032180        -0.8757
 103   0.0000      -0.015988        -0.4351
 104   0.0000       0.004305         0.1172
 105   0.0000       0.019289         0.5249

MULLIKEN ATOMIC CHARGES
-----------------------
   0 C :   -0.283735
   1 C :   -0.019633
   2 O :   -0.355921
   3 P :    0.620900
   4 S :   -0.310895
   5 O :   -0.384283
   6 C :   -0.008113
   7 C :   -0.282842
   8 S :   -0.108291
   9 C :   -0.334991
  10 S :   -0.109978
  11 P :    0.636297
  12 S :   -0.320661
  13 O :   -0.380188
  14 C :    0.000713
  15 C :   -0.320781
  16 O :   -0.379739
  17 C :   -0.005773
  18 C :   -0.324472
  19 H :    0.119960
  20 H :    0.109103
  21 H :    0.115683
  22 H :    0.105480
  23 H :    0.124822
  24 H :    0.104204
  25 H :    0.099383
  26 H :    0.121607
  27 H :    0.112641
  28 H :    0.116071
  29 H :    0.199523
  30 H :    0.178830
  31 H :    0.106479
  32 H :    0.115331
  33 H :    0.114999
  34 H :    0.105514
  35 H :    0.133937
  36 H :    0.104968
  37 H :    0.112198
  38 H :    0.117076
  39 H :    0.132067
  40 H :    0.122506
Sum of atomic charges:   -0.0000000

LOEWDIN ATOMIC CHARGES
----------------------
   0 C :   -0.359363
   1 C :   -0.117149
   2 O :   -0.225417
   3 P :    0.578968
   4 S :   -0.293533
   5 O :   -0.250149
   6 C :   -0.123576
   7 C :   -0.350747
   8 S :    0.072496
   9 C :   -0.480282
  10 S :    0.066531
  11 P :    0.573614
  12 S :   -0.310329
  13 O :   -0.243914
  14 C :   -0.113757
  15 C :   -0.366812
  16 O :   -0.241121
  17 C :   -0.122167
  18 C :   -0.370003
  19 H :    0.124544
  20 H :    0.129766
  21 H :    0.126753
  22 H :    0.107401
  23 H :    0.116391
  24 H :    0.108500
  25 H :    0.105055
  26 H :    0.128469
  27 H :    0.131198
  28 H :    0.125829
  29 H :    0.122968
  30 H :    0.137505
  31 H :    0.111298
  32 H :    0.115864
  33 H :    0.118133
  34 H :    0.127417
  35 H :    0.129340
  36 H :    0.118519
  37 H :    0.109444
  38 H :    0.133514
  39 H :    0.122128
  40 H :    0.126677

  Mayer bond orders larger than 0.100000
B(  0-C ,  1-C ) :   1.1612 B(  0-C , 19-H ) :   0.9403 B(  0-C , 20-H ) :   0.9401
B(  0-C , 21-H ) :   0.9479 B(  1-C ,  2-O ) :   0.8740 B(  1-C , 22-H ) :   0.9204
B(  1-C , 23-H ) :   0.9186 B(  2-O ,  3-P ) :   1.1430 B(  3-P ,  4-S ) :   1.6164
B(  3-P ,  5-O ) :   1.0666 B(  3-P ,  8-S ) :   0.9572 B(  4-S ,  8-S ) :   0.1175
B(  4-S , 29-H ) :   0.1156 B(  5-O ,  6-C ) :   0.9093 B(  6-C ,  7-C ) :   1.1589
B(  6-C , 24-H ) :   0.9122 B(  6-C , 25-H ) :   0.9214 B(  7-C , 26-H ) :   0.9509
B(  7-C , 27-H ) :   0.9422 B(  7-C , 28-H ) :   0.9508 B(  8-S ,  9-C ) :   1.0099
B(  9-C , 10-S ) :   0.9942 B(  9-C , 29-H ) :   0.8490 B(  9-C , 30-H ) :   0.9127
B( 10-S , 11-P ) :   0.9538 B( 10-S , 12-S ) :   0.1151 B( 11-P , 12-S ) :   1.6371
B( 11-P , 13-O ) :   1.1048 B( 11-P , 16-O ) :   1.0739 B( 13-O , 14-C ) :   0.8906
B( 14-C , 15-C ) :   1.1721 B( 14-C , 31-H ) :   0.9276 B( 14-C , 32-H ) :   0.9143
B( 15-C , 33-H ) :   0.9364 B( 15-C , 34-H ) :   0.9376 B( 15-C , 35-H ) :   0.9375
B( 16-O , 17-C ) :   0.9074 B( 17-C , 18-C ) :   1.1659 B( 17-C , 36-H ) :   0.9316
B( 17-C , 37-H ) :   0.9100 B( 18-C , 38-H ) :   0.9383 B( 18-C , 39-H ) :   0.9310
B( 18-C , 40-H ) :   0.9444

Dispersion correction           -0.068384923
FINAL SINGLE POINT ENERGY     -2929.514696855191

DIPOLE MOMENT
-------------

Method             : SCF
Type of density    : Electron Density
Multiplicity       :   1
Irrep              :   0
Energy             : -2929.6348259437827437 Eh
Relativity type    :
Basis              : AO
                                X                 Y                 Z
Electronic contribution:     -7.176724781      -9.232996569       5.374854399
Nuclear contribution   :      7.288872981       9.221818369      -5.513126243
                        -----------------------------------------
Total Dipole Moment    :      0.112148200      -0.011178200      -0.138271844
                        -----------------------------------------
Magnitude (a.u.)       :      0.178385184
Magnitude (Debye)      :      0.453419103

Rotational constants in cm-1:             0.013434             0.005382             0.005009
Rotational constants in MHz :           402.728720           161.346338           150.172182

                             ****ORCA TERMINATED NORMALLY****
TOTAL RUN TIME: 0 days 0 hours 0 minutes 21 seconds 636 msec
