                         Program Version 6.0.0  -   RELEASE  -
|  1> ! pbe def2-sv(p) def2/J RI DEFGRID1 loosescf d4 GCP(DFT/SV(P)) printgap
|  2> %output
|  3>     printlevel normal
|  4> end
|  5> * xyz 0 1
|  6> C 2.8397699795 1.7757604306 -2.1344666551
|  7> C 3.1585603582 0.2958829153 -2.1230410666
|  8> O 2.2900089868 -0.4527721433 -1.247724338
|  9> P 2.1208277197 -0.2150254173 0.307698932
| 10> S 1.0769374301 1.3321222595 0.9349891274
| 11> O 3.6284371982 -0.1978049918 0.8068455106
| 12> C 3.9950422282 0.2551507525 2.1216935071
| 13> C 3.5290895867 -0.7051810703 3.1960348366
| 14> S 1.407474034 -2.126107812 0.8403559905
| 15> C -0.201931564 -2.1093446926 0.0014710259
| 16> S -1.4697527973 -1.1282696442 0.8556652592
| 17> P -1.8717814263 0.3914712069 -0.5932003806
| 18> S -0.7741343476 0.3036647887 -2.2123122619
| 19> O -1.8636122214 1.8138191685 0.0665219481
| 20> C -2.8333985985 2.3193297062 1.0178216619
| 21> C -2.8186404724 1.5468636378 2.3189231934
| 22> O -3.4318796538 0.1949947212 -0.8669968777
| 23> C -3.9279972495 -0.9782726588 -1.5377546187
| 24> C -5.3968388559 -0.7568544346 -1.8367406132
| 25> H 3.0299210441 2.2120743136 -1.1544671609
| 26> H 3.4591320654 2.2740178823 -2.8733275844
| 27> H 1.7910000777 1.9287226109 -2.3834136242
| 28> H 4.189622877 0.1175135742 -1.8094039495
| 29> H 2.9768061016 -0.1550383225 -3.10018298
| 30> H 5.082832408 0.323907471 2.0815292355
| 31> H 3.5612447628 1.2482186154 2.2783038612
| 32> H 3.8767776988 -1.7121063575 2.9801803836
| 33> H 3.9160360603 -0.3853691514 4.1580920883
| 34> H 2.4403989918 -0.7131535814 3.2369417897
| 35> H -0.5344974224 -3.1437968631 -0.0029119006
| 36> H -0.0808009638 -1.7203305977 -1.0132302487
| 37> H -2.5139515282 3.3525710396 1.1623776239
| 38> H -3.8182610642 2.2906027105 0.5480782918
| 39> H -1.8056239067 1.5035438279 2.7131860886
| 40> H -3.4618120205 2.0460677049 3.0367401194
| 41> H -3.1787606569 0.5307272215 2.1641607218
| 42> H -3.3480805186 -1.1250979327 -2.4550945746
| 43> H -3.7801504234 -1.8386638468 -0.8782378017
| 44> H -5.5201153047 0.113463015 -2.4750820104
| 45> H -5.7916276527 -1.6314448811 -2.3429781557
| 46> H -5.9446497458 -0.5975336258 -0.912684494
| 47> *
| 48>
| 49>                          ****END OF INPUT****

CARTESIAN COORDINATES (ANGSTROEM)
---------------------------------
  C      2.839770    1.775760   -2.134467
  C      3.158560    0.295883   -2.123041
  O      2.290009   -0.452772   -1.247724
  P      2.120828   -0.215025    0.307699
  S      1.076937    1.332122    0.934989
  O      3.628437   -0.197805    0.806846
  C      3.995042    0.255151    2.121694
  C      3.529090   -0.705181    3.196035
  S      1.407474   -2.126108    0.840356
  C     -0.201932   -2.109345    0.001471
  S     -1.469753   -1.128270    0.855665
  P     -1.871781    0.391471   -0.593200
  S     -0.774134    0.303665   -2.212312
  O     -1.863612    1.813819    0.066522
  C     -2.833399    2.319330    1.017822
  C     -2.818640    1.546864    2.318923
  O     -3.431880    0.194995   -0.866997
  C     -3.927997   -0.978273   -1.537755
  C     -5.396839   -0.756854   -1.836741
  H      3.029921    2.212074   -1.154467
  H      3.459132    2.274018   -2.873328
  H      1.791000    1.928723   -2.383414
  H      4.189623    0.117514   -1.809404
  H      2.976806   -0.155038   -3.100183
  H      5.082832    0.323907    2.081529
  H      3.561245    1.248219    2.278304
  H      3.876778   -1.712106    2.980180
  H      3.916036   -0.385369    4.158092
  H      2.440399   -0.713154    3.236942
  H     -0.534497   -3.143797   -0.002912
  H     -0.080801   -1.720331   -1.013230
  H     -2.513952    3.352571    1.162378
  H     -3.818261    2.290603    0.548078
  H     -1.805624    1.503544    2.713186
  H     -3.461812    2.046068    3.036740
  H     -3.178761    0.530727    2.164161
  H     -3.348081   -1.125098   -2.455095
  H     -3.780150   -1.838664   -0.878238
  H     -5.520115    0.113463   -2.475082
  H     -5.791628   -1.631445   -2.342978
  H     -5.944650   -0.597534   -0.912684

 Total Charge           Charge          ....    0
 Multiplicity           Mult            ....    1
 Number of Electrons    NEL             ....  202
 Basis Dimension        Dim             ....  334

ORBITAL ENERGIES
----------------

  NO   OCC          E(Eh)            E(eV)
   0   2.0000     -88.036431     -2395.5931
   1   2.0000     -88.034242     -2395.5335
   2   2.0000     -87.978793     -2394.0247
   3   2.0000     -87.976259     -2393.9557
   4   2.0000     -76.421338     -2079.5303
   5   2.0000     -76.419297     -2079.4748
   6   2.0000     -18.789478      -511.2877
   7   2.0000     -18.787587      -511.2362
   8   2.0000     -18.785599      -511.1821
   9   2.0000     -18.778584      -510.9912
  10   2.0000      -9.954090      -270.8646
  11   2.0000      -9.950068      -270.7551
  12   2.0000      -9.949229      -270.7323
  13   2.0000      -9.948971      -270.7253
  14   2.0000      -9.945699      -270.6362
  15   2.0000      -9.887212      -269.0447
  16   2.0000      -9.885712      -269.0039
  17   2.0000      -9.881986      -268.9025
  18   2.0000      -9.869397      -268.5599
  19   2.0000      -7.680976      -209.0100
  20   2.0000      -7.679934      -208.9816
  21   2.0000      -7.623903      -207.4570
  22   2.0000      -7.620896      -207.3751
  23   2.0000      -6.418428      -174.6543
  24   2.0000      -6.416593      -174.6044
  25   2.0000      -5.708918      -155.3475
  26   2.0000      -5.707776      -155.3165
  27   2.0000      -5.705464      -155.2536
  28   2.0000      -5.704570      -155.2292
  29   2.0000      -5.698028      -155.0512
  30   2.0000      -5.696690      -155.0148
  31   2.0000      -5.652777      -153.8199
  32   2.0000      -5.649669      -153.7353
  33   2.0000      -5.644580      -153.5968
  34   2.0000      -5.643939      -153.5794
  35   2.0000      -5.641555      -153.5145
  36   2.0000      -5.641211      -153.5051
  37   2.0000      -4.641326      -126.2969
  38   2.0000      -4.640036      -126.2618
  39   2.0000      -4.639643      -126.2511
  40   2.0000      -4.638794      -126.2280
  41   2.0000      -4.638239      -126.2129
  42   2.0000      -4.636757      -126.1726
  43   2.0000      -0.984093       -26.7785
  44   2.0000      -0.981288       -26.7022
  45   2.0000      -0.938934       -25.5497
  46   2.0000      -0.937548       -25.5120
  47   2.0000      -0.755546       -20.5594
  48   2.0000      -0.717211       -19.5163
  49   2.0000      -0.705266       -19.1913
  50   2.0000      -0.689981       -18.7753
  51   2.0000      -0.683095       -18.5880
  52   2.0000      -0.668520       -18.1914
  53   2.0000      -0.647152       -17.6099
  54   2.0000      -0.628386       -17.0992
  55   2.0000      -0.592161       -16.1135
  56   2.0000      -0.586603       -15.9623
  57   2.0000      -0.570326       -15.5193
  58   2.0000      -0.569499       -15.4969
  59   2.0000      -0.556535       -15.1441
  60   2.0000      -0.502394       -13.6708
  61   2.0000      -0.489964       -13.3326
  62   2.0000      -0.470625       -12.8064
  63   2.0000      -0.463971       -12.6253
  64   2.0000      -0.449027       -12.2187
  65   2.0000      -0.445150       -12.1132
  66   2.0000      -0.441197       -12.0056
  67   2.0000      -0.428616       -11.6632
  68   2.0000      -0.425317       -11.5735
  69   2.0000      -0.414447       -11.2777
  70   2.0000      -0.408383       -11.1127
  71   2.0000      -0.400969       -10.9109
  72   2.0000      -0.394529       -10.7357
  73   2.0000      -0.380083       -10.3426
  74   2.0000      -0.374462       -10.1896
  75   2.0000      -0.365429        -9.9438
  76   2.0000      -0.361116        -9.8265
  77   2.0000      -0.353717        -9.6251
  78   2.0000      -0.350815        -9.5462
  79   2.0000      -0.348695        -9.4885
  80   2.0000      -0.339932        -9.2500
  81   2.0000      -0.338363        -9.2073
  82   2.0000      -0.335668        -9.1340
  83   2.0000      -0.332155        -9.0384
  84   2.0000      -0.326356        -8.8806
  85   2.0000      -0.313593        -8.5333
  86   2.0000      -0.308503        -8.3948
  87   2.0000      -0.299455        -8.1486
  88   2.0000      -0.291632        -7.9357
  89   2.0000      -0.289065        -7.8659
  90   2.0000      -0.280492        -7.6326
  91   2.0000      -0.270720        -7.3667
  92   2.0000      -0.268800        -7.3144
  93   2.0000      -0.254925        -6.9369
  94   2.0000      -0.251315        -6.8386
  95   2.0000      -0.233002        -6.3403
  96   2.0000      -0.218802        -5.9539
  97   2.0000      -0.198546        -5.4027
  98   2.0000      -0.195009        -5.3065
  99   2.0000      -0.186478        -5.0743
 100   2.0000      -0.182591        -4.9686
 101   0.0000      -0.033157        -0.9022
 102   0.0000      -0.029964        -0.8154
 103   0.0000      -0.009002        -0.2450
 104   0.0000       0.003943         0.1073
 105   0.0000       0.018365         0.4997

MULLIKEN ATOMIC CHARGES
-----------------------
   0 C :   -0.323343
   1 C :    0.007457
   2 O :   -0.367874
   3 P :    0.623428
   4 S :   -0.316394
   5 O :   -0.379319
   6 C :   -0.002739
   7 C :   -0.322470
   8 S :   -0.094994
   9 C :   -0.344137
  10 S :   -0.111758
  11 P :    0.618138
  12 S :   -0.306383
  13 O :   -0.346943
  14 C :    0.003891
  15 C :   -0.332524
  16 O :   -0.388845
  17 C :   -0.004326
  18 C :   -0.279964
  19 H :    0.120669
  20 H :    0.103122
  21 H :    0.141512
  22 H :    0.103342
  23 H :    0.104916
  24 H :    0.102712
  25 H :    0.110163
  26 H :    0.118575
  27 H :    0.113409
  28 H :    0.131199
  29 H :    0.177782
  30 H :    0.200879
  31 H :    0.112099
  32 H :    0.110678
  33 H :    0.140151
  34 H :    0.114472
  35 H :    0.126365
  36 H :    0.100400
  37 H :    0.093139
  38 H :    0.120240
  39 H :    0.110656
  40 H :    0.112618
Sum of atomic charges:   -0.0000000

LOEWDIN ATOMIC CHARGES
----------------------
   0 C :   -0.371747
   1 C :   -0.106632
   2 O :   -0.240270
   3 P :    0.570032
   4 S :   -0.310024
   5 O :   -0.245383
   6 C :   -0.121860
   7 C :   -0.371071
   8 S :    0.078924
   9 C :   -0.483761
  10 S :    0.071455
  11 P :    0.573502
  12 S :   -0.297167
  13 O :   -0.221720
  14 C :   -0.106543
  15 C :   -0.370173
  16 O :   -0.256886
  17 C :   -0.124720
  18 C :   -0.350509
  19 H :    0.119056
  20 H :    0.125912
  21 H :    0.130666
  22 H :    0.110436
  23 H :    0.120435
  24 H :    0.117290
  25 H :    0.109277
  26 H :    0.124657
  27 H :    0.131531
  28 H :    0.122989
  29 H :    0.136162
  30 H :    0.124360
  31 H :    0.124116
  32 H :    0.113997
  33 H :    0.133389
  34 H :    0.132078
  35 H :    0.115779
  36 H :    0.107039
  37 H :    0.101927
  38 H :    0.128490
  39 H :    0.130178
  40 H :    0.124787

  Mayer bond orders larger than 0.100000
B(  0-C ,  1-C ) :   1.1682 B(  0-C , 19-H ) :   0.9351 B(  0-C , 20-H ) :   0.9352
B(  0-C , 21-H ) :   0.9351 B(  1-C ,  2-O ) :   0.9044 B(  1-C , 22-H ) :   0.9322
B(  1-C , 23-H ) :   0.9346 B(  2-O ,  3-P ) :   1.1218 B(  3-P ,  4-S ) :   1.6269
B(  3-P ,  5-O ) :   1.0841 B(  3-P ,  8-S ) :   0.9591 B(  4-S ,  8-S ) :   0.1189
B(  5-O ,  6-C ) :   0.9083 B(  6-C ,  7-C ) :   1.1656 B(  6-C , 24-H ) :   0.9325
B(  6-C , 25-H ) :   0.9110 B(  7-C , 26-H ) :   0.9448 B(  7-C , 27-H ) :   0.9383
B(  7-C , 28-H ) :   0.9324 B(  8-S ,  9-C ) :   0.9975 B(  9-C , 10-S ) :   0.9981
B(  9-C , 29-H ) :   0.9124 B(  9-C , 30-H ) :   0.8456 B( 10-S , 11-P ) :   0.9362
B( 10-S , 12-S ) :   0.1187 B( 11-P , 12-S ) :   1.6277 B( 11-P , 13-O ) :   1.1541
B( 11-P , 16-O ) :   1.0542 B( 12-S , 30-H ) :   0.1152 B( 13-O , 14-C ) :   0.8965
B( 14-C , 15-C ) :   1.1694 B( 14-C , 31-H ) :   0.9328 B( 14-C , 32-H ) :   0.9266
B( 15-C , 33-H ) :   0.9394 B( 15-C , 34-H ) :   0.9356 B( 15-C , 35-H ) :   0.9328
B( 16-O , 17-C ) :   0.9137 B( 17-C , 18-C ) :   1.1602 B( 17-C , 36-H ) :   0.9122
B( 17-C , 37-H ) :   0.9192 B( 18-C , 38-H ) :   0.9514 B( 18-C , 39-H ) :   0.9424
B( 18-C , 40-H ) :   0.9515

Dispersion correction           -0.067121333
FINAL SINGLE POINT ENERGY     -2929.512391746181

DIPOLE MOMENT
-------------

Method             : SCF
Type of density    : Electron Density
Multiplicity       :   1
Irrep              :   0
Energy             : -2929.6301384006210355 Eh
Relativity type    :
Basis              : AO
                                X                 Y                 Z
Electronic contribution:      4.998463944      -4.814821776      -2.539993284
Nuclear contribution   :     -5.337574079       4.524082703       3.000244613
                        -----------------------------------------
Total Dipole Moment    :     -0.339110135      -0.290739073       0.460251329
                        -----------------------------------------
Magnitude (a.u.)       :      0.641370546
Magnitude (Debye)      :      1.630234372

Rotational constants in cm-1:             0.012604             0.005227             0.004945
Rotational constants in MHz :           377.867515           156.687642           148.260845

                             ****ORCA TERMINATED NORMALLY****
TOTAL RUN TIME: 0 days 0 hours 0 minutes 21 seconds 105 msec
