                         Program Version 6.0.0  -   RELEASE  -
|  1> ! pbe def2-sv(p) def2/J RI DEFGRID1 loosescf d4 GCP(DFT/SV(P)) printgap
|  2> %output
|  3>     printlevel normal
|  4> end
|  5> * xyz 0 1
|  6> C -2.9253036374 -0.0005496723 -0.0004189802
|  7> C -1.4261061677 -0.0089696826 -0.0003497152
|  8> C -0.7090163736 -1.1960431411 0.0004255895
|  9> C 0.675241841 -1.1977840382 0.0004124854
| 10> C 1.3718909401 0.0029302775 0.0006628701
| 11> C 0.6634107245 1.2012587804 0.0006612313
| 12> C -0.7162055457 1.1879121738 -3.7428e-05
| 13> O 2.7346735389 0.060688184 -0.0007165376
| 14> H -3.3010418822 0.5298280374 -0.8737930781
| 15> H -3.3180662673 -1.0134799961 -0.0120939034
| 16> H -3.300741214 0.5090540211 0.88555356
| 17> H -1.2354620247 -2.1394147002 0.000419868
| 18> H 1.2118198529 -2.1358299095 -0.0021460338
| 19> H 1.2148895576 2.1286280913 0.0003754127
| 20> H -1.2544616314 2.1242765064 -0.0011879286
| 21> H 3.1104637761 -0.8323870596 -0.0019129183
| 22> *
| 23>
| 24>                          ****END OF INPUT****

CARTESIAN COORDINATES (ANGSTROEM)
---------------------------------
  C     -2.925304   -0.000550   -0.000419
  C     -1.426106   -0.008970   -0.000350
  C     -0.709016   -1.196043    0.000426
  C      0.675242   -1.197784    0.000412
  C      1.371891    0.002930    0.000663
  C      0.663411    1.201259    0.000661
  C     -0.716206    1.187912   -0.000037
  O      2.734674    0.060688   -0.000717
  H     -3.301042    0.529828   -0.873793
  H     -3.318066   -1.013480   -0.012094
  H     -3.300741    0.509054    0.885554
  H     -1.235462   -2.139415    0.000420
  H      1.211820   -2.135830   -0.002146
  H      1.214890    2.128628    0.000375
  H     -1.254462    2.124277   -0.001188
  H      3.110464   -0.832387   -0.001913

 Total Charge           Charge          ....    0
 Multiplicity           Mult            ....    1
 Number of Electrons    NEL             ....   58
 Basis Dimension        Dim             ....  128

ORBITAL ENERGIES
----------------

  NO   OCC          E(Eh)            E(eV)
   0   2.0000     -18.777983      -510.9749
   1   2.0000      -9.947094      -270.6742
   2   2.0000      -9.892765      -269.1958
   3   2.0000      -9.888805      -269.0881
   4   2.0000      -9.887969      -269.0653
   5   2.0000      -9.887386      -269.0494
   6   2.0000      -9.883342      -268.9394
   7   2.0000      -9.879927      -268.8465
   8   2.0000      -0.958313       -26.0770
   9   2.0000      -0.771640       -20.9974
  10   2.0000      -0.688137       -18.7252
  11   2.0000      -0.669385       -18.2149
  12   2.0000      -0.609314       -16.5803
  13   2.0000      -0.556900       -15.1540
  14   2.0000      -0.526678       -14.3316
  15   2.0000      -0.492418       -13.3994
  16   2.0000      -0.431684       -11.7467
  17   2.0000      -0.412451       -11.2234
  18   2.0000      -0.386254       -10.5105
  19   2.0000      -0.376314       -10.2400
  20   2.0000      -0.373354       -10.1595
  21   2.0000      -0.353913        -9.6305
  22   2.0000      -0.349684        -9.5154
  23   2.0000      -0.322342        -8.7714
  24   2.0000      -0.308376        -8.3914
  25   2.0000      -0.289059        -7.8657
  26   2.0000      -0.283311        -7.7093
  27   2.0000      -0.226327        -6.1587
  28   2.0000      -0.187063        -5.0902
  29   0.0000      -0.032056        -0.8723
  30   0.0000      -0.013845        -0.3767
  31   0.0000       0.025138         0.6840
  32   0.0000       0.047238         1.2854
  33   0.0000       0.070021         1.9054

MULLIKEN ATOMIC CHARGES
-----------------------
   0 C :   -0.223802
   1 C :    0.060144
   2 C :   -0.127993
   3 C :   -0.158063
   4 C :    0.246440
   5 C :   -0.119056
   6 C :   -0.114463
   7 O :   -0.340458
   8 H :    0.112072
   9 H :    0.097423
  10 H :    0.112444
  11 H :    0.035247
  12 H :    0.023917
  13 H :    0.043918
  14 H :    0.036804
  15 H :    0.315423
Sum of atomic charges:    0.0000000

LOEWDIN ATOMIC CHARGES
----------------------
   0 C :   -0.322739
   1 C :   -0.070267
   2 C :   -0.119303
   3 C :   -0.176402
   4 C :    0.019278
   5 C :   -0.145269
   6 C :   -0.113599
   7 O :   -0.240835
   8 H :    0.129310
   9 H :    0.122271
  10 H :    0.129474
  11 H :    0.120737
  12 H :    0.118894
  13 H :    0.129769
  14 H :    0.121822
  15 H :    0.296859

  Mayer bond orders larger than 0.100000
B(  0-C ,  1-C ) :   1.0962 B(  0-C ,  8-H ) :   0.9378 B(  0-C ,  9-H ) :   0.9464
B(  0-C , 10-H ) :   0.9376 B(  1-C ,  2-C ) :   1.4087 B(  1-C ,  6-C ) :   1.3593
B(  2-C ,  3-C ) :   1.3495 B(  2-C , 11-H ) :   0.9558 B(  3-C ,  4-C ) :   1.3195
B(  3-C , 12-H ) :   0.9575 B(  4-C ,  5-C ) :   1.3536 B(  4-C ,  7-O ) :   1.1795
B(  5-C ,  6-C ) :   1.3784 B(  5-C , 13-H ) :   0.9645 B(  6-C , 14-H ) :   0.9686
B(  7-O , 15-H ) :   0.8434

Dispersion correction           -0.015366791
FINAL SINGLE POINT ENERGY      -346.022253176436

DIPOLE MOMENT
-------------

Method             : SCF
Type of density    : Electron Density
Multiplicity       :   1
Irrep              :   0
Energy             :  -346.0718624685092664 Eh
Relativity type    :
Basis              : AO
                                X                 Y                 Z
Electronic contribution:      6.416177098       0.275624054       0.003610086
Nuclear contribution   :     -6.407105547      -0.777150297      -0.004499817
                        -----------------------------------------
Total Dipole Moment    :      0.009071551      -0.501526242      -0.000889731
                        -----------------------------------------
Magnitude (a.u.)       :      0.501609067
Magnitude (Debye)      :      1.274988924

Rotational constants in cm-1:             0.185409             0.049163             0.039140
Rotational constants in MHz :          5558.419387          1473.861262          1173.402533

                             ****ORCA TERMINATED NORMALLY****
TOTAL RUN TIME: 0 days 0 hours 0 minutes 7 seconds 53 msec
