                         Program Version 6.0.1  -  RELEASE   -
|  1> ! pbe def2-sv(p) def2/J RI DEFGRID1 loosescf d4 GCP(DFT/SV(P)) printgap
|  2> %output
|  3>     printlevel normal
|  4> end
|  5> * xyz 0 1
|  6> C 2.5719195424 -2.7703309551 0.7406692144
|  7> C 3.2741562983 -1.8702965598 -0.260705068
|  8> O 2.3079096544 -0.9657816715 -0.8317022666
|  9> C 2.203358159 -0.8721464093 -2.1442805769
| 10> O 2.9195808821 -1.4505412882 -2.9313170993
| 11> C 1.079520176 0.0500432313 -2.5702280169
| 12> C 0.2160455577 0.521147195 -1.4097635936
| 13> H -0.5562235527 1.2106728484 -1.7736393074
| 14> C 1.0402124117 1.2867851447 -0.3891277123
| 15> O 1.942551233 2.0277596753 -0.7038178109
| 16> O 0.6138209537 1.0921719812 0.8405939858
| 17> C 1.259311118 1.7978554479 1.9190663725
| 18> C 2.3862324519 0.9656827533 2.5055793701
| 19> S -0.6561363183 -0.8815021113 -0.6349036682
| 20> P -2.0101180485 0.2306817262 0.5718136858
| 21> S -2.3641998865 2.0798037983 0.028654159
| 22> O -3.3080674788 -0.7112395023 0.555334565
| 23> C -4.0926637772 -0.8732298893 -0.630120526
| 24> O -1.597352103 0.0890290408 2.0892259002
| 25> C -1.3478526064 -1.196187367 2.6922200424
| 26> H 2.1076082671 -2.1696561852 1.5172019745
| 27> H 1.8035805184 -3.3558069519 0.2428868354
| 28> H 3.2981694836 -3.4386003428 1.1909130273
| 29> H 3.7311031006 -2.4426039864 -1.072906096
| 30> H 4.0367598431 -1.2539080289 0.222291016
| 31> H 0.4801884657 -0.4719395394 -3.3171025079
| 32> H 1.5368816452 0.9200829978 -3.0486117905
| 33> H 1.6319168056 2.7492467896 1.5293759051
| 34> H 0.4633384713 1.9730639988 2.6445014984
| 35> H 3.1471989302 0.7881893455 1.7493658426
| 36> H 2.8311197501 1.5051739405 3.3350666813
| 37> H 2.0054556624 0.0125541328 2.8613844266
| 38> H -3.5454991482 -1.4720807985 -1.3580321721
| 39> H -4.335915481 0.1015922765 -1.0559157504
| 40> H -4.9982082473 -1.3854242582 -0.3152496356
| 41> H -0.6287826803 -1.7549084113 2.0928379959
| 42> H -2.2784024051 -1.7547900836 2.7707199409
| 43> H -0.9454249305 -0.976513152 3.6777323607
| 44> *
| 45>
| 46>                          ****END OF INPUT****

CARTESIAN COORDINATES (ANGSTROEM)
---------------------------------
  C      2.571920   -2.770331    0.740669
  C      3.274156   -1.870297   -0.260705
  O      2.307910   -0.965782   -0.831702
  C      2.203358   -0.872146   -2.144281
  O      2.919581   -1.450541   -2.931317
  C      1.079520    0.050043   -2.570228
  C      0.216046    0.521147   -1.409764
  H     -0.556224    1.210673   -1.773639
  C      1.040212    1.286785   -0.389128
  O      1.942551    2.027760   -0.703818
  O      0.613821    1.092172    0.840594
  C      1.259311    1.797855    1.919066
  C      2.386232    0.965683    2.505579
  S     -0.656136   -0.881502   -0.634904
  P     -2.010118    0.230682    0.571814
  S     -2.364200    2.079804    0.028654
  O     -3.308067   -0.711240    0.555335
  C     -4.092664   -0.873230   -0.630121
  O     -1.597352    0.089029    2.089226
  C     -1.347853   -1.196187    2.692220
  H      2.107608   -2.169656    1.517202
  H      1.803581   -3.355807    0.242887
  H      3.298169   -3.438600    1.190913
  H      3.731103   -2.442604   -1.072906
  H      4.036760   -1.253908    0.222291
  H      0.480188   -0.471940   -3.317103
  H      1.536882    0.920083   -3.048612
  H      1.631917    2.749247    1.529376
  H      0.463338    1.973064    2.644501
  H      3.147199    0.788189    1.749366
  H      2.831120    1.505174    3.335067
  H      2.005456    0.012554    2.861384
  H     -3.545499   -1.472081   -1.358032
  H     -4.335915    0.101592   -1.055916
  H     -4.998208   -1.385424   -0.315250
  H     -0.628783   -1.754908    2.092838
  H     -2.278402   -1.754790    2.770720
  H     -0.945425   -0.976513    3.677732

 Total Charge           Charge          ....    0
 Multiplicity           Mult            ....    1
 Number of Electrons    NEL             ....  174
 Basis Dimension        Dim             ....  316

ORBITAL ENERGIES
----------------

  NO   OCC          E(Eh)            E(eV)
   0   2.0000     -88.043527     -2395.7862
   1   2.0000     -87.984669     -2394.1846
   2   2.0000     -76.428680     -2079.7301
   3   2.0000     -18.812792      -511.9221
   4   2.0000     -18.809232      -511.8252
   5   2.0000     -18.799275      -511.5543
   6   2.0000     -18.793950      -511.4094
   7   2.0000     -18.740641      -509.9588
   8   2.0000     -18.736642      -509.8500
   9   2.0000     -10.016835      -272.5719
  10   2.0000     -10.015930      -272.5473
  11   2.0000      -9.956889      -270.9407
  12   2.0000      -9.953740      -270.8550
  13   2.0000      -9.949477      -270.7390
  14   2.0000      -9.947256      -270.6786
  15   2.0000      -9.946360      -270.6542
  16   2.0000      -9.917366      -269.8653
  17   2.0000      -9.895772      -269.2776
  18   2.0000      -9.894359      -269.2392
  19   2.0000      -7.687898      -209.1983
  20   2.0000      -7.629901      -207.6202
  21   2.0000      -6.425557      -174.8483
  22   2.0000      -5.715633      -155.5303
  23   2.0000      -5.712570      -155.4469
  24   2.0000      -5.704979      -155.2404
  25   2.0000      -5.659069      -153.9911
  26   2.0000      -5.650365      -153.7543
  27   2.0000      -5.649929      -153.7424
  28   2.0000      -4.648316      -126.4871
  29   2.0000      -4.647458      -126.4638
  30   2.0000      -4.645849      -126.4200
  31   2.0000      -1.019689       -27.7472
  32   2.0000      -1.014401       -27.6033
  33   2.0000      -0.991120       -26.9697
  34   2.0000      -0.946187       -25.7471
  35   2.0000      -0.921326       -25.0705
  36   2.0000      -0.917774       -24.9739
  37   2.0000      -0.770807       -20.9747
  38   2.0000      -0.719595       -19.5812
  39   2.0000      -0.705767       -19.2049
  40   2.0000      -0.698944       -19.0192
  41   2.0000      -0.663719       -18.0607
  42   2.0000      -0.640380       -17.4256
  43   2.0000      -0.625033       -17.0080
  44   2.0000      -0.618727       -16.8364
  45   2.0000      -0.601449       -16.3663
  46   2.0000      -0.571785       -15.5590
  47   2.0000      -0.519504       -14.1364
  48   2.0000      -0.514294       -13.9947
  49   2.0000      -0.502321       -13.6688
  50   2.0000      -0.484493       -13.1837
  51   2.0000      -0.478469       -13.0198
  52   2.0000      -0.469119       -12.7654
  53   2.0000      -0.451169       -12.2769
  54   2.0000      -0.439676       -11.9642
  55   2.0000      -0.435529       -11.8514
  56   2.0000      -0.428382       -11.6569
  57   2.0000      -0.423688       -11.5291
  58   2.0000      -0.417939       -11.3727
  59   2.0000      -0.407271       -11.0824
  60   2.0000      -0.406306       -11.0562
  61   2.0000      -0.404139       -10.9972
  62   2.0000      -0.398747       -10.8505
  63   2.0000      -0.385834       -10.4991
  64   2.0000      -0.379743       -10.3333
  65   2.0000      -0.375009       -10.2045
  66   2.0000      -0.367020        -9.9871
  67   2.0000      -0.359258        -9.7759
  68   2.0000      -0.349539        -9.5114
  69   2.0000      -0.344779        -9.3819
  70   2.0000      -0.338323        -9.2062
  71   2.0000      -0.334712        -9.1080
  72   2.0000      -0.330870        -9.0034
  73   2.0000      -0.319269        -8.6877
  74   2.0000      -0.309854        -8.4315
  75   2.0000      -0.304123        -8.2756
  76   2.0000      -0.300056        -8.1649
  77   2.0000      -0.295668        -8.0455
  78   2.0000      -0.274664        -7.4740
  79   2.0000      -0.269565        -7.3352
  80   2.0000      -0.265280        -7.2186
  81   2.0000      -0.258828        -7.0431
  82   2.0000      -0.244349        -6.6491
  83   2.0000      -0.226362        -6.1596
  84   2.0000      -0.212944        -5.7945
  85   2.0000      -0.203689        -5.5427
  86   2.0000      -0.200727        -5.4620
  87   0.0000      -0.044031        -1.1981
  88   0.0000      -0.024337        -0.6623
  89   0.0000      -0.022808        -0.6207
  90   0.0000       0.001645         0.0448
  91   0.0000       0.013309         0.3621

MULLIKEN ATOMIC CHARGES
-----------------------
   0 C :   -0.307614
   1 C :   -0.029191
   2 O :   -0.238710
   3 C :    0.111586
   4 O :   -0.195945
   5 C :   -0.104612
   6 C :   -0.314296
   7 H :    0.157932
   8 C :    0.240934
   9 O :   -0.201592
  10 O :   -0.232570
  11 C :   -0.009071
  12 C :   -0.323800
  13 S :   -0.103119
  14 P :    0.624133
  15 S :   -0.320063
  16 O :   -0.391434
  17 C :   -0.099440
  18 O :   -0.363725
  19 C :   -0.118006
  20 H :    0.129804
  21 H :    0.117520
  22 H :    0.113114
  23 H :    0.121676
  24 H :    0.114732
  25 H :    0.132833
  26 H :    0.150037
  27 H :    0.114914
  28 H :    0.112534
  29 H :    0.129980
  30 H :    0.115743
  31 H :    0.122967
  32 H :    0.113030
  33 H :    0.118579
  34 H :    0.125198
  35 H :    0.127029
  36 H :    0.128892
  37 H :    0.130025
Sum of atomic charges:   -0.0000000

LOEWDIN ATOMIC CHARGES
----------------------
   0 C :   -0.353539
   1 C :   -0.108821
   2 O :   -0.052752
   3 C :    0.033846
   4 O :   -0.161604
   5 C :   -0.245230
   6 C :   -0.276545
   7 H :    0.144391
   8 C :    0.018488
   9 O :   -0.163736
  10 O :   -0.054211
  11 C :   -0.107221
  12 C :   -0.355389
  13 S :    0.090293
  14 P :    0.578627
  15 S :   -0.314742
  16 O :   -0.262900
  17 C :   -0.217230
  18 O :   -0.236194
  19 C :   -0.212035
  20 H :    0.122231
  21 H :    0.127348
  22 H :    0.130754
  23 H :    0.124046
  24 H :    0.118628
  25 H :    0.148586
  26 H :    0.163273
  27 H :    0.123251
  28 H :    0.121203
  29 H :    0.129268
  30 H :    0.132599
  31 H :    0.120984
  32 H :    0.107506
  33 H :    0.112147
  34 H :    0.122377
  35 H :    0.109420
  36 H :    0.118719
  37 H :    0.124166

  Mayer bond orders larger than 0.100000
B(  0-C ,  1-C ) :   1.1708 B(  0-C , 20-H ) :   0.9367 B(  0-C , 21-H ) :   0.9477
B(  0-C , 22-H ) :   0.9414 B(  1-C ,  2-O ) :   0.9034 B(  1-C , 23-H ) :   0.9064
B(  1-C , 24-H ) :   0.9281 B(  2-O ,  3-C ) :   1.2110 B(  3-C ,  4-O ) :   2.0752
B(  3-C ,  5-C ) :   1.0079 B(  5-C ,  6-C ) :   1.0664 B(  5-C , 25-H ) :   0.9006
B(  5-C , 26-H ) :   0.8747 B(  6-C ,  7-H ) :   0.8332 B(  6-C ,  8-C ) :   0.8659
B(  6-C , 13-S ) :   1.0191 B(  8-C ,  9-O ) :   2.0615 B(  8-C , 10-O ) :   1.2382
B( 10-O , 11-C ) :   0.9028 B( 11-C , 12-C ) :   1.1781 B( 11-C , 27-H ) :   0.9141
B( 11-C , 28-H ) :   0.9295 B( 12-C , 29-H ) :   0.9412 B( 12-C , 30-H ) :   0.9413
B( 12-C , 31-H ) :   0.9388 B( 13-S , 14-P ) :   0.9570 B( 13-S , 15-S ) :   0.1139
B( 14-P , 15-S ) :   1.6362 B( 14-P , 16-O ) :   1.0651 B( 14-P , 18-O ) :   1.1138
B( 16-O , 17-C ) :   0.9334 B( 17-C , 32-H ) :   0.9457 B( 17-C , 33-H ) :   0.9359
B( 17-C , 34-H ) :   0.9585 B( 18-O , 19-C ) :   0.9184 B( 19-C , 35-H ) :   0.9330
B( 19-C , 36-H ) :   0.9472 B( 19-C , 37-H ) :   0.9577

Dispersion correction           -0.054617043
FINAL SINGLE POINT ENERGY     -1979.021992315702

DIPOLE MOMENT
-------------

Method             : SCF
Type of density    : Electron Density
Multiplicity       :   1
Irrep              :   0
Energy             : -1979.1507372220344223 Eh
Relativity type    :
Basis              : AO
                                X                 Y                 Z
Electronic contribution:    -11.262466887       9.366331230      -9.346956879
Nuclear contribution   :     11.105997549     -10.761805813      10.649595264
                        -----------------------------------------
Total Dipole Moment    :     -0.156469338      -1.395474583       1.302638385
                        -----------------------------------------
Magnitude (a.u.)       :      1.915384747
Magnitude (Debye)      :      4.868521118

Rotational constants in cm-1:             0.013761             0.007555             0.007102
Rotational constants in MHz :           412.558602           226.488826           212.919232

                             ****ORCA TERMINATED NORMALLY****
TOTAL RUN TIME: 0 days 0 hours 0 minutes 32 seconds 229 msec
