                         Program Version 6.0.1  -  RELEASE   -
|  1> ! pbe def2-sv(p) def2/J RI DEFGRID1 loosescf d4 GCP(DFT/SV(P)) printgap
|  2> %output
|  3>     printlevel normal
|  4> end
|  5> * xyz 0 1
|  6> C 3.2631064844 -1.6538821954 1.6659940111
|  7> C 3.0835840188 -2.2209780751 0.2679817488
|  8> O 2.7935543982 -1.1684226094 -0.6730698944
|  9> C 1.5675889973 -1.012989877 -1.1211555557
| 10> O 0.6176534576 -1.695704188 -0.7861126744
| 11> C 1.4861670723 0.1044809076 -2.1395290933
| 12> C 0.2844109054 1.02002112 -1.8995840504
| 13> H 0.2065020161 1.7333704791 -2.7247818199
| 14> C 0.3883989675 1.7981314121 -0.6016926667
| 15> O -0.529606869 1.8403730416 0.1983650506
| 16> O 1.5327333517 2.4007578197 -0.4690992894
| 17> C 1.797050841 3.1402884731 0.7459174658
| 18> C 2.3904052229 2.2258021247 1.8036526326
| 19> S -1.3201722751 0.1443011099 -1.8870343172
| 20> P -1.5779637008 -0.3956101204 0.1480498534
| 21> S -0.3928624152 -0.5817951884 1.7169876538
| 22> O -2.9374325836 0.3589964716 0.5638442661
| 23> C -3.0387593932 1.4634223455 1.4577967361
| 24> O -2.2264317583 -1.7959762674 -0.2842565752
| 25> C -2.7100883859 -2.7346049377 0.6761793565
| 26> H 4.0372858244 -0.8924803397 1.6662012485
| 27> H 2.3300694811 -1.2169722788 2.0176353248
| 28> H 3.5473246028 -2.454416457 2.3406093252
| 29> H 2.2658821277 -2.9466498717 0.2442985926
| 30> H 4.0064173162 -2.675424626 -0.096220624
| 31> H 1.3733502971 -0.3588495573 -3.1214156397
| 32> H 2.4090496944 0.6834912449 -2.1073863785
| 33> H 2.5043941564 3.9105259578 0.4391934955
| 34> H 0.8636881296 3.5880736126 1.0952561693
| 35> H 1.6801953179 1.4445256041 2.0712989243
| 36> H 3.2986604131 1.7609400859 1.430933001
| 37> H 2.6214635356 2.8047589774 2.6912259341
| 38> H -2.2664895847 1.3947173403 2.2262227421
| 39> H -4.0288856731 1.3966549196 1.9030236476
| 40> H -2.9229340662 2.3939662139 0.9052606363
| 41> H -2.8310361368 -3.671175563 0.1376007954
| 42> H -3.6639186947 -2.3956675337 1.0816325342
| 43> H -1.9858513898 -2.8529484593 1.4855842186
| 44> *
| 45>
| 46>                          ****END OF INPUT****

CARTESIAN COORDINATES (ANGSTROEM)
---------------------------------
  C      3.263106   -1.653882    1.665994
  C      3.083584   -2.220978    0.267982
  O      2.793554   -1.168423   -0.673070
  C      1.567589   -1.012990   -1.121156
  O      0.617653   -1.695704   -0.786113
  C      1.486167    0.104481   -2.139529
  C      0.284411    1.020021   -1.899584
  H      0.206502    1.733370   -2.724782
  C      0.388399    1.798131   -0.601693
  O     -0.529607    1.840373    0.198365
  O      1.532733    2.400758   -0.469099
  C      1.797051    3.140288    0.745917
  C      2.390405    2.225802    1.803653
  S     -1.320172    0.144301   -1.887034
  P     -1.577964   -0.395610    0.148050
  S     -0.392862   -0.581795    1.716988
  O     -2.937433    0.358996    0.563844
  C     -3.038759    1.463422    1.457797
  O     -2.226432   -1.795976   -0.284257
  C     -2.710088   -2.734605    0.676179
  H      4.037286   -0.892480    1.666201
  H      2.330069   -1.216972    2.017635
  H      3.547325   -2.454416    2.340609
  H      2.265882   -2.946650    0.244299
  H      4.006417   -2.675425   -0.096221
  H      1.373350   -0.358850   -3.121416
  H      2.409050    0.683491   -2.107386
  H      2.504394    3.910526    0.439193
  H      0.863688    3.588074    1.095256
  H      1.680195    1.444526    2.071299
  H      3.298660    1.760940    1.430933
  H      2.621464    2.804759    2.691226
  H     -2.266490    1.394717    2.226223
  H     -4.028886    1.396655    1.903024
  H     -2.922934    2.393966    0.905261
  H     -2.831036   -3.671176    0.137601
  H     -3.663919   -2.395668    1.081633
  H     -1.985851   -2.852948    1.485584

 Total Charge           Charge          ....    0
 Multiplicity           Mult            ....    1
 Number of Electrons    NEL             ....  174
 Basis Dimension        Dim             ....  316

ORBITAL ENERGIES
----------------

  NO   OCC          E(Eh)            E(eV)
   0   2.0000     -88.023531     -2395.2420
   1   2.0000     -87.963998     -2393.6221
   2   2.0000     -76.411287     -2079.2568
   3   2.0000     -18.826437      -512.2934
   4   2.0000     -18.803287      -511.6635
   5   2.0000     -18.765319      -510.6303
   6   2.0000     -18.763186      -510.5722
   7   2.0000     -18.760095      -510.4881
   8   2.0000     -18.735997      -509.8324
   9   2.0000     -10.032018      -272.9851
  10   2.0000     -10.009722      -272.3784
  11   2.0000      -9.960670      -271.0436
  12   2.0000      -9.954126      -270.8655
  13   2.0000      -9.943393      -270.5735
  14   2.0000      -9.920903      -269.9615
  15   2.0000      -9.920247      -269.9436
  16   2.0000      -9.915634      -269.8181
  17   2.0000      -9.888614      -269.0829
  18   2.0000      -9.879646      -268.8388
  19   2.0000      -7.668835      -208.6796
  20   2.0000      -7.608831      -207.0468
  21   2.0000      -6.405877      -174.3128
  22   2.0000      -5.697361      -155.0331
  23   2.0000      -5.693871      -154.9381
  24   2.0000      -5.684507      -154.6833
  25   2.0000      -5.637996      -153.4177
  26   2.0000      -5.629533      -153.1874
  27   2.0000      -5.628580      -153.1614
  28   2.0000      -4.628602      -125.9507
  29   2.0000      -4.628156      -125.9385
  30   2.0000      -4.626387      -125.8904
  31   2.0000      -1.037033       -28.2191
  32   2.0000      -1.009674       -27.4746
  33   2.0000      -0.956681       -26.0326
  34   2.0000      -0.942018       -25.6336
  35   2.0000      -0.914667       -24.8893
  36   2.0000      -0.911266       -24.7968
  37   2.0000      -0.765599       -20.8330
  38   2.0000      -0.714645       -19.4465
  39   2.0000      -0.707999       -19.2656
  40   2.0000      -0.681342       -18.5403
  41   2.0000      -0.647337       -17.6149
  42   2.0000      -0.623148       -16.9567
  43   2.0000      -0.610511       -16.6128
  44   2.0000      -0.607479       -16.5304
  45   2.0000      -0.592388       -16.1197
  46   2.0000      -0.565964       -15.4007
  47   2.0000      -0.512519       -13.9464
  48   2.0000      -0.501477       -13.6459
  49   2.0000      -0.496816       -13.5191
  50   2.0000      -0.485981       -13.2242
  51   2.0000      -0.459669       -12.5082
  52   2.0000      -0.455291       -12.3891
  53   2.0000      -0.452832       -12.3222
  54   2.0000      -0.432253       -11.7622
  55   2.0000      -0.430226       -11.7070
  56   2.0000      -0.422469       -11.4960
  57   2.0000      -0.415025       -11.2934
  58   2.0000      -0.403744       -10.9864
  59   2.0000      -0.398728       -10.8500
  60   2.0000      -0.393995       -10.7212
  61   2.0000      -0.388826       -10.5805
  62   2.0000      -0.384982       -10.4759
  63   2.0000      -0.377935       -10.2841
  64   2.0000      -0.375811       -10.2263
  65   2.0000      -0.366591        -9.9754
  66   2.0000      -0.360672        -9.8144
  67   2.0000      -0.354766        -9.6537
  68   2.0000      -0.347686        -9.4610
  69   2.0000      -0.339666        -9.2428
  70   2.0000      -0.337029        -9.1710
  71   2.0000      -0.328804        -8.9472
  72   2.0000      -0.321417        -8.7462
  73   2.0000      -0.310458        -8.4480
  74   2.0000      -0.294156        -8.0044
  75   2.0000      -0.291543        -7.9333
  76   2.0000      -0.282902        -7.6981
  77   2.0000      -0.280181        -7.6241
  78   2.0000      -0.267132        -7.2690
  79   2.0000      -0.256264        -6.9733
  80   2.0000      -0.253428        -6.8961
  81   2.0000      -0.246148        -6.6980
  82   2.0000      -0.241810        -6.5800
  83   2.0000      -0.224390        -6.1059
  84   2.0000      -0.190607        -5.1867
  85   2.0000      -0.180655        -4.9159
  86   2.0000      -0.173192        -4.7128
  87   0.0000      -0.049801        -1.3552
  88   0.0000      -0.044415        -1.2086
  89   0.0000      -0.026649        -0.7251
  90   0.0000       0.012187         0.3316
  91   0.0000       0.033998         0.9251

MULLIKEN ATOMIC CHARGES
-----------------------
   0 C :   -0.317694
   1 C :   -0.017984
   2 O :   -0.227279
   3 C :    0.097681
   4 O :   -0.183877
   5 C :   -0.040732
   6 C :   -0.322583
   7 H :    0.152406
   8 C :    0.220814
   9 O :   -0.192399
  10 O :   -0.216146
  11 C :   -0.010575
  12 C :   -0.332944
  13 S :   -0.052821
  14 P :    0.663730
  15 S :   -0.356652
  16 O :   -0.394184
  17 C :   -0.083069
  18 O :   -0.385232
  19 C :   -0.091299
  20 H :    0.110385
  21 H :    0.148551
  22 H :    0.107653
  23 H :    0.117098
  24 H :    0.100191
  25 H :    0.128080
  26 H :    0.115293
  27 H :    0.107764
  28 H :    0.114801
  29 H :    0.156996
  30 H :    0.118998
  31 H :    0.113244
  32 H :    0.107161
  33 H :    0.108751
  34 H :    0.104442
  35 H :    0.115686
  36 H :    0.103606
  37 H :    0.112139
Sum of atomic charges:   -0.0000000

LOEWDIN ATOMIC CHARGES
----------------------
   0 C :   -0.359549
   1 C :   -0.109534
   2 O :   -0.053176
   3 C :    0.025145
   4 O :   -0.160867
   5 C :   -0.251039
   6 C :   -0.265172
   7 H :    0.152696
   8 C :    0.022625
   9 O :   -0.149501
  10 O :   -0.033167
  11 C :   -0.103534
  12 C :   -0.362551
  13 S :    0.126638
  14 P :    0.607790
  15 S :   -0.321794
  16 O :   -0.263596
  17 C :   -0.215803
  18 O :   -0.258400
  19 C :   -0.214962
  20 H :    0.119849
  21 H :    0.126113
  22 H :    0.129634
  23 H :    0.123785
  24 H :    0.115818
  25 H :    0.150397
  26 H :    0.137751
  27 H :    0.120298
  28 H :    0.123121
  29 H :    0.130691
  30 H :    0.124769
  31 H :    0.132351
  32 H :    0.102696
  33 H :    0.112355
  34 H :    0.106989
  35 H :    0.117536
  36 H :    0.107359
  37 H :    0.106241

  Mayer bond orders larger than 0.100000
B(  0-C ,  1-C ) :   1.1814 B(  0-C , 20-H ) :   0.9445 B(  0-C , 21-H ) :   0.9253
B(  0-C , 22-H ) :   0.9405 B(  1-C ,  2-O ) :   0.9046 B(  1-C , 23-H ) :   0.9055
B(  1-C , 24-H ) :   0.9361 B(  2-O ,  3-C ) :   1.2449 B(  3-C ,  4-O ) :   1.9905
B(  3-C ,  5-C ) :   0.9956 B(  5-C ,  6-C ) :   1.0114 B(  5-C , 25-H ) :   0.8852
B(  5-C , 26-H ) :   0.8884 B(  6-C ,  7-H ) :   0.8718 B(  6-C ,  8-C ) :   0.9013
B(  6-C , 13-S ) :   1.0662 B(  8-C ,  9-O ) :   1.9173 B(  8-C , 10-O ) :   1.2838
B(  9-O , 14-P ) :   0.1242 B( 10-O , 11-C ) :   0.8911 B( 11-C , 12-C ) :   1.1783
B( 11-C , 27-H ) :   0.9362 B( 11-C , 28-H ) :   0.9141 B( 12-C , 29-H ) :   0.9208
B( 12-C , 30-H ) :   0.9429 B( 12-C , 31-H ) :   0.9387 B( 13-S , 14-P ) :   0.9101
B( 13-S , 15-S ) :   0.1152 B( 14-P , 15-S ) :   1.4865 B( 14-P , 16-O ) :   1.0780
B( 14-P , 18-O ) :   1.0851 B( 16-O , 17-C ) :   0.9444 B( 17-C , 32-H ) :   0.9293
B( 17-C , 33-H ) :   0.9566 B( 17-C , 34-H ) :   0.9523 B( 18-O , 19-C ) :   0.9447
B( 19-C , 35-H ) :   0.9601 B( 19-C , 36-H ) :   0.9514 B( 19-C , 37-H ) :   0.9310

Dispersion correction           -0.056190720
FINAL SINGLE POINT ENERGY     -1978.996171989414

DIPOLE MOMENT
-------------

Method             : SCF
Type of density    : Electron Density
Multiplicity       :   1
Irrep              :   0
Energy             : -1979.1245886763053932 Eh
Relativity type    :
Basis              : AO
                                X                 Y                 Z
Electronic contribution:    -12.751963866      -0.997930812     -12.763433293
Nuclear contribution   :     14.062280895       1.909899478      12.691133774
                        -----------------------------------------
Total Dipole Moment    :      1.310317029       0.911968666      -0.072299520
                        -----------------------------------------
Magnitude (a.u.)       :      1.598075337
Magnitude (Debye)      :      4.061984696

Rotational constants in cm-1:             0.012401             0.009264             0.007936
Rotational constants in MHz :           371.760782           277.734465           237.928761

                             ****ORCA TERMINATED NORMALLY****
TOTAL RUN TIME: 0 days 0 hours 1 minutes 35 seconds 443 msec
