                         Program Version 6.0.0  -   RELEASE  -
|  1> ! r2scan-3c def2/J RI DEFGRID2 scfconv6 printgap
|  2> %output
|  3>     printlevel normal
|  4> end
|  5> * xyz 0 1
|  6> C 1.3857714021 0.5297887753 -2.7620213866
|  7> C 2.4326314136 0.873559503 -1.7208661774
|  8> O 2.7993229833 -0.2909014461 -0.9599357324
|  9> P 2.2231598876 -0.6411559908 0.4777909137
| 10> S 2.3235051195 0.7936950175 1.819066011
| 11> O 3.0536404939 -1.9393044781 0.8389065572
| 12> C 4.3152108284 -1.8827051683 1.5347373853
| 13> C 5.4082342596 -1.2855018603 0.6738513739
| 14> S 0.3565649998 -1.5525721579 0.1263191463
| 15> C -0.496727667 -1.0611151806 1.6672531236
| 16> S -2.2554680228 -0.7411072359 1.3979242515
| 17> P -2.063499957 0.7577471373 -0.0849389765
| 18> S -0.5971150559 2.0431383431 0.0293159636
| 19> O -3.5321564797 1.3520909025 0.1109872385
| 20> C -3.8689161594 2.6922706655 -0.2957092596
| 21> C -3.9441547598 2.8167328444 -1.8044969712
| 22> O -2.0451920078 0.0208735886 -1.4936615197
| 23> C -3.0624443787 -0.9381202062 -1.8732735179
| 24> C -2.4835697099 -2.338138421 -1.9039162652
| 25> H 0.4427520743 0.2686749131 -2.2858253464
| 26> H 1.2256511111 1.3937037755 -3.3990900903
| 27> H 1.7232393742 -0.309544312 -3.3633418157
| 28> H 2.0736667141 1.6544862179 -1.0420593423
| 29> H 3.3618840979 1.2015281704 -2.1909755535
| 30> H 4.179061138 -1.295152901 2.4484366769
| 31> H 4.5194773435 -2.9240100371 1.7868011487
| 32> H 5.1929686138 -0.2354256815 0.4802679862
| 33> H 6.358482258 -1.3613057324 1.1930596782
| 34> H 5.4683725397 -1.8122292965 -0.274739312
| 35> H -0.0102816765 -0.1604211413 2.0531132008
| 36> H -0.4442297903 -1.8746853994 2.3865399052
| 37> H -4.8344981215 2.8771589329 0.1770922201
| 38> H -3.1194698748 3.3788786136 0.1106800238
| 39> H -4.6655441081 2.1103751857 -2.2069648267
| 40> H -4.2447480511 3.8262731558 -2.0668657157
| 41> H -2.9653443142 2.6145085459 -2.2387859295
| 42> H -3.8975605807 -0.8695935867 -1.1703209152
| 43> H -3.3875993718 -0.6240233753 -2.8666711867
| 44> H -1.6182253666 -2.3705611084 -2.5594977423
| 45> H -2.1710965168 -2.6460265367 -0.9089193538
| 46> H -3.2396874207 -3.0253246288 -2.2695820683
| 47> *
| 48>
| 49>                          ****END OF INPUT****

CARTESIAN COORDINATES (ANGSTROEM)
---------------------------------
  C      1.385771    0.529789   -2.762021
  C      2.432631    0.873560   -1.720866
  O      2.799323   -0.290901   -0.959936
  P      2.223160   -0.641156    0.477791
  S      2.323505    0.793695    1.819066
  O      3.053640   -1.939304    0.838907
  C      4.315211   -1.882705    1.534737
  C      5.408234   -1.285502    0.673851
  S      0.356565   -1.552572    0.126319
  C     -0.496728   -1.061115    1.667253
  S     -2.255468   -0.741107    1.397924
  P     -2.063500    0.757747   -0.084939
  S     -0.597115    2.043138    0.029316
  O     -3.532156    1.352091    0.110987
  C     -3.868916    2.692271   -0.295709
  C     -3.944155    2.816733   -1.804497
  O     -2.045192    0.020874   -1.493662
  C     -3.062444   -0.938120   -1.873274
  C     -2.483570   -2.338138   -1.903916
  H      0.442752    0.268675   -2.285825
  H      1.225651    1.393704   -3.399090
  H      1.723239   -0.309544   -3.363342
  H      2.073667    1.654486   -1.042059
  H      3.361884    1.201528   -2.190976
  H      4.179061   -1.295153    2.448437
  H      4.519477   -2.924010    1.786801
  H      5.192969   -0.235426    0.480268
  H      6.358482   -1.361306    1.193060
  H      5.468373   -1.812229   -0.274739
  H     -0.010282   -0.160421    2.053113
  H     -0.444230   -1.874685    2.386540
  H     -4.834498    2.877159    0.177092
  H     -3.119470    3.378879    0.110680
  H     -4.665544    2.110375   -2.206965
  H     -4.244748    3.826273   -2.066866
  H     -2.965344    2.614509   -2.238786
  H     -3.897561   -0.869594   -1.170321
  H     -3.387599   -0.624023   -2.866671
  H     -1.618225   -2.370561   -2.559498
  H     -2.171097   -2.646027   -0.908919
  H     -3.239687   -3.025325   -2.269582

 Total Charge           Charge          ....    0
 Multiplicity           Mult            ....    1
 Number of Electrons    NEL             ....  202
 Basis Dimension        Dim             ....  539

ORBITAL ENERGIES
----------------

  NO   OCC          E(Eh)            E(eV)
   0   2.0000     -88.578934     -2410.3553
   1   2.0000     -88.571051     -2410.1408
   2   2.0000     -88.518332     -2408.7063
   3   2.0000     -88.514882     -2408.6124
   4   2.0000     -76.914063     -2092.9381
   5   2.0000     -76.908254     -2092.7800
   6   2.0000     -18.991710      -516.7907
   7   2.0000     -18.991290      -516.7793
   8   2.0000     -18.986612      -516.6520
   9   2.0000     -18.981797      -516.5210
  10   2.0000     -10.104621      -274.9607
  11   2.0000     -10.104002      -274.9439
  12   2.0000     -10.099568      -274.8232
  13   2.0000     -10.091479      -274.6031
  14   2.0000     -10.088775      -274.5295
  15   2.0000     -10.032806      -273.0065
  16   2.0000     -10.031698      -272.9764
  17   2.0000     -10.023567      -272.7551
  18   2.0000     -10.016272      -272.5566
  19   2.0000      -7.873242      -214.2418
  20   2.0000      -7.865556      -214.0327
  21   2.0000      -7.813077      -212.6046
  22   2.0000      -7.809505      -212.5074
  23   2.0000      -6.592428      -179.3891
  24   2.0000      -6.586711      -179.2335
  25   2.0000      -5.820212      -158.3760
  26   2.0000      -5.817047      -158.2899
  27   2.0000      -5.812348      -158.1620
  28   2.0000      -5.810301      -158.1063
  29   2.0000      -5.809554      -158.0860
  30   2.0000      -5.802543      -157.8952
  31   2.0000      -5.760902      -156.7621
  32   2.0000      -5.757116      -156.6591
  33   2.0000      -5.753419      -156.5585
  34   2.0000      -5.752828      -156.5424
  35   2.0000      -5.749916      -156.4632
  36   2.0000      -5.749440      -156.4502
  37   2.0000      -4.738234      -128.9339
  38   2.0000      -4.737222      -128.9064
  39   2.0000      -4.736012      -128.8734
  40   2.0000      -4.732020      -128.7648
  41   2.0000      -4.731648      -128.7547
  42   2.0000      -4.730600      -128.7262
  43   2.0000      -1.048613       -28.5342
  44   2.0000      -1.043320       -28.3902
  45   2.0000      -1.010430       -27.4952
  46   2.0000      -1.003963       -27.3192
  47   2.0000      -0.799506       -21.7557
  48   2.0000      -0.757938       -20.6245
  49   2.0000      -0.746173       -20.3044
  50   2.0000      -0.737377       -20.0651
  51   2.0000      -0.724134       -19.7047
  52   2.0000      -0.707326       -19.2473
  53   2.0000      -0.685368       -18.6498
  54   2.0000      -0.663482       -18.0543
  55   2.0000      -0.630159       -17.1475
  56   2.0000      -0.620294       -16.8791
  57   2.0000      -0.610094       -16.6015
  58   2.0000      -0.595634       -16.2080
  59   2.0000      -0.588872       -16.0240
  60   2.0000      -0.527353       -14.3500
  61   2.0000      -0.515272       -14.0213
  62   2.0000      -0.498964       -13.5775
  63   2.0000      -0.488757       -13.2997
  64   2.0000      -0.470303       -12.7976
  65   2.0000      -0.466302       -12.6887
  66   2.0000      -0.456272       -12.4158
  67   2.0000      -0.447283       -12.1712
  68   2.0000      -0.445225       -12.1152
  69   2.0000      -0.428364       -11.6564
  70   2.0000      -0.421041       -11.4571
  71   2.0000      -0.409883       -11.1535
  72   2.0000      -0.408374       -11.1124
  73   2.0000      -0.402022       -10.9396
  74   2.0000      -0.393477       -10.7070
  75   2.0000      -0.390059       -10.6141
  76   2.0000      -0.384813       -10.4713
  77   2.0000      -0.375603       -10.2207
  78   2.0000      -0.367797       -10.0083
  79   2.0000      -0.364721        -9.9246
  80   2.0000      -0.360798        -9.8178
  81   2.0000      -0.356042        -9.6884
  82   2.0000      -0.351701        -9.5703
  83   2.0000      -0.349998        -9.5239
  84   2.0000      -0.341539        -9.2938
  85   2.0000      -0.333138        -9.0651
  86   2.0000      -0.324497        -8.8300
  87   2.0000      -0.319986        -8.7073
  88   2.0000      -0.299701        -8.1553
  89   2.0000      -0.297264        -8.0890
  90   2.0000      -0.295056        -8.0289
  91   2.0000      -0.287630        -7.8268
  92   2.0000      -0.285829        -7.7778
  93   2.0000      -0.282846        -7.6966
  94   2.0000      -0.271625        -7.3913
  95   2.0000      -0.242389        -6.5957
  96   2.0000      -0.237323        -6.4579
  97   2.0000      -0.222998        -6.0681
  98   2.0000      -0.212064        -5.7706
  99   2.0000      -0.210166        -5.7189
 100   2.0000      -0.201781        -5.4908
 101   0.0000      -0.048066        -1.3079
 102   0.0000      -0.033713        -0.9174
 103   0.0000      -0.003088        -0.0840
 104   0.0000       0.011371         0.3094
 105   0.0000       0.018309         0.4982

MULLIKEN ATOMIC CHARGES
-----------------------
   0 C :   -0.445573
   1 C :   -0.152164
   2 O :   -0.275217
   3 P :    0.669117
   4 S :   -0.463773
   5 O :   -0.287280
   6 C :   -0.155477
   7 C :   -0.440192
   8 S :   -0.128966
   9 C :   -0.237162
  10 S :   -0.145967
  11 P :    0.659005
  12 S :   -0.408728
  13 O :   -0.325101
  14 C :   -0.160510
  15 C :   -0.445417
  16 O :   -0.266120
  17 C :   -0.115124
  18 C :   -0.457541
  19 H :    0.184256
  20 H :    0.143305
  21 H :    0.146041
  22 H :    0.173331
  23 H :    0.145376
  24 H :    0.171289
  25 H :    0.146469
  26 H :    0.168026
  27 H :    0.145580
  28 H :    0.154801
  29 H :    0.221672
  30 H :    0.188750
  31 H :    0.150070
  32 H :    0.178981
  33 H :    0.147312
  34 H :    0.150667
  35 H :    0.179509
  36 H :    0.161618
  37 H :    0.153701
  38 H :    0.161436
  39 H :    0.164155
  40 H :    0.145844
Sum of atomic charges:   -0.0000000

LOEWDIN ATOMIC CHARGES
----------------------
   0 C :   -0.407106
   1 C :    0.020650
   2 O :   -0.659208
   3 P :    0.379027
   4 S :   -0.125947
   5 O :   -0.670306
   6 C :    0.020001
   7 C :   -0.400404
   8 S :    0.169049
   9 C :   -0.407093
  10 S :    0.159082
  11 P :    0.378168
  12 S :   -0.075726
  13 O :   -0.691755
  14 C :    0.021823
  15 C :   -0.399374
  16 O :   -0.684589
  17 C :    0.017990
  18 C :   -0.401274
  19 H :    0.174466
  20 H :    0.160488
  21 H :    0.155761
  22 H :    0.183804
  23 H :    0.175549
  24 H :    0.179527
  25 H :    0.178631
  26 H :    0.165324
  27 H :    0.158357
  28 H :    0.160762
  29 H :    0.199086
  30 H :    0.178348
  31 H :    0.179535
  32 H :    0.181766
  33 H :    0.156088
  34 H :    0.160773
  35 H :    0.167602
  36 H :    0.177903
  37 H :    0.179170
  38 H :    0.162395
  39 H :    0.163100
  40 H :    0.158557

  Mayer bond orders larger than 0.100000
B(  0-C ,  1-C ) :   0.9455 B(  0-C , 19-H ) :   0.9501 B(  0-C , 20-H ) :   0.9641
B(  0-C , 21-H ) :   0.9754 B(  1-C ,  2-O ) :   0.7686 B(  1-C , 22-H ) :   0.9548
B(  1-C , 23-H ) :   0.9663 B(  2-O ,  3-P ) :   1.0975 B(  3-P ,  4-S ) :   1.7562
B(  3-P ,  5-O ) :   1.1774 B(  3-P ,  8-S ) :   1.0677 B(  5-O ,  6-C ) :   0.8134
B(  6-C ,  7-C ) :   0.9293 B(  6-C , 24-H ) :   0.9647 B(  6-C , 25-H ) :   0.9612
B(  7-C , 26-H ) :   0.9603 B(  7-C , 27-H ) :   0.9627 B(  7-C , 28-H ) :   0.9710
B(  8-S ,  9-C ) :   0.8996 B(  9-C , 10-S ) :   0.9248 B(  9-C , 29-H ) :   0.9032
B(  9-C , 30-H ) :   0.9141 B( 10-S , 11-P ) :   1.0395 B( 11-P , 12-S ) :   1.8476
B( 11-P , 13-O ) :   1.0926 B( 11-P , 16-O ) :   1.0505 B( 13-O , 14-C ) :   0.8171
B( 14-C , 15-C ) :   0.9121 B( 14-C , 31-H ) :   0.9608 B( 14-C , 32-H ) :   0.9690
B( 15-C , 33-H ) :   0.9688 B( 15-C , 34-H ) :   0.9610 B( 15-C , 35-H ) :   0.9635
B( 16-O , 17-C ) :   0.7442 B( 17-C , 18-C ) :   0.9487 B( 17-C , 36-H ) :   0.9706
B( 17-C , 37-H ) :   0.9562 B( 18-C , 38-H ) :   0.9695 B( 18-C , 39-H ) :   0.9641
B( 18-C , 40-H ) :   0.9623

Dispersion correction           -0.022049853
FINAL SINGLE POINT ENERGY     -2932.458606699372

DIPOLE MOMENT
-------------

Method             : SCF
Type of density    : Electron Density
Multiplicity       :   1
Irrep              :   0
Energy             : -2932.4832201950466697 Eh
Relativity type    :
Basis              : AO
                                X                 Y                 Z
Electronic contribution:     -0.606643977      -0.284110360      16.486251168
Nuclear contribution   :     -0.183051093      -0.304012673     -17.552815818
                        -----------------------------------------
Total Dipole Moment    :     -0.789695070      -0.588123032      -1.066564650
                        -----------------------------------------
Magnitude (a.u.)       :      1.451574028
Magnitude (Debye)      :      3.689607961

Rotational constants in cm-1:             0.013884             0.004823             0.004696
Rotational constants in MHz :           416.245829           144.581165           140.790906

                             ****ORCA TERMINATED NORMALLY****
TOTAL RUN TIME: 0 days 0 hours 1 minutes 17 seconds 819 msec
