                         Program Version 6.0.0  -   RELEASE  -
|  1> ! r2scan-3c def2/J RI DEFGRID2 scfconv6 printgap
|  2> %output
|  3>     printlevel normal
|  4> end
|  5> %cpcm
|  6>     smd true
|  7>     smdsolvent "water"
|  8> end
|  9> * xyz 0 1
| 10> C 1.3857714021 0.5297887753 -2.7620213866
| 11> C 2.4326314136 0.873559503 -1.7208661774
| 12> O 2.7993229833 -0.2909014461 -0.9599357324
| 13> P 2.2231598876 -0.6411559908 0.4777909137
| 14> S 2.3235051195 0.7936950175 1.819066011
| 15> O 3.0536404939 -1.9393044781 0.8389065572
| 16> C 4.3152108284 -1.8827051683 1.5347373853
| 17> C 5.4082342596 -1.2855018603 0.6738513739
| 18> S 0.3565649998 -1.5525721579 0.1263191463
| 19> C -0.496727667 -1.0611151806 1.6672531236
| 20> S -2.2554680228 -0.7411072359 1.3979242515
| 21> P -2.063499957 0.7577471373 -0.0849389765
| 22> S -0.5971150559 2.0431383431 0.0293159636
| 23> O -3.5321564797 1.3520909025 0.1109872385
| 24> C -3.8689161594 2.6922706655 -0.2957092596
| 25> C -3.9441547598 2.8167328444 -1.8044969712
| 26> O -2.0451920078 0.0208735886 -1.4936615197
| 27> C -3.0624443787 -0.9381202062 -1.8732735179
| 28> C -2.4835697099 -2.338138421 -1.9039162652
| 29> H 0.4427520743 0.2686749131 -2.2858253464
| 30> H 1.2256511111 1.3937037755 -3.3990900903
| 31> H 1.7232393742 -0.309544312 -3.3633418157
| 32> H 2.0736667141 1.6544862179 -1.0420593423
| 33> H 3.3618840979 1.2015281704 -2.1909755535
| 34> H 4.179061138 -1.295152901 2.4484366769
| 35> H 4.5194773435 -2.9240100371 1.7868011487
| 36> H 5.1929686138 -0.2354256815 0.4802679862
| 37> H 6.358482258 -1.3613057324 1.1930596782
| 38> H 5.4683725397 -1.8122292965 -0.274739312
| 39> H -0.0102816765 -0.1604211413 2.0531132008
| 40> H -0.4442297903 -1.8746853994 2.3865399052
| 41> H -4.8344981215 2.8771589329 0.1770922201
| 42> H -3.1194698748 3.3788786136 0.1106800238
| 43> H -4.6655441081 2.1103751857 -2.2069648267
| 44> H -4.2447480511 3.8262731558 -2.0668657157
| 45> H -2.9653443142 2.6145085459 -2.2387859295
| 46> H -3.8975605807 -0.8695935867 -1.1703209152
| 47> H -3.3875993718 -0.6240233753 -2.8666711867
| 48> H -1.6182253666 -2.3705611084 -2.5594977423
| 49> H -2.1710965168 -2.6460265367 -0.9089193538
| 50> H -3.2396874207 -3.0253246288 -2.2695820683
| 51> *
| 52>
| 53>                          ****END OF INPUT****

CARTESIAN COORDINATES (ANGSTROEM)
---------------------------------
  C      1.385771    0.529789   -2.762021
  C      2.432631    0.873560   -1.720866
  O      2.799323   -0.290901   -0.959936
  P      2.223160   -0.641156    0.477791
  S      2.323505    0.793695    1.819066
  O      3.053640   -1.939304    0.838907
  C      4.315211   -1.882705    1.534737
  C      5.408234   -1.285502    0.673851
  S      0.356565   -1.552572    0.126319
  C     -0.496728   -1.061115    1.667253
  S     -2.255468   -0.741107    1.397924
  P     -2.063500    0.757747   -0.084939
  S     -0.597115    2.043138    0.029316
  O     -3.532156    1.352091    0.110987
  C     -3.868916    2.692271   -0.295709
  C     -3.944155    2.816733   -1.804497
  O     -2.045192    0.020874   -1.493662
  C     -3.062444   -0.938120   -1.873274
  C     -2.483570   -2.338138   -1.903916
  H      0.442752    0.268675   -2.285825
  H      1.225651    1.393704   -3.399090
  H      1.723239   -0.309544   -3.363342
  H      2.073667    1.654486   -1.042059
  H      3.361884    1.201528   -2.190976
  H      4.179061   -1.295153    2.448437
  H      4.519477   -2.924010    1.786801
  H      5.192969   -0.235426    0.480268
  H      6.358482   -1.361306    1.193060
  H      5.468373   -1.812229   -0.274739
  H     -0.010282   -0.160421    2.053113
  H     -0.444230   -1.874685    2.386540
  H     -4.834498    2.877159    0.177092
  H     -3.119470    3.378879    0.110680
  H     -4.665544    2.110375   -2.206965
  H     -4.244748    3.826273   -2.066866
  H     -2.965344    2.614509   -2.238786
  H     -3.897561   -0.869594   -1.170321
  H     -3.387599   -0.624023   -2.866671
  H     -1.618225   -2.370561   -2.559498
  H     -2.171097   -2.646027   -0.908919
  H     -3.239687   -3.025325   -2.269582

 Total Charge           Charge          ....    0
 Multiplicity           Mult            ....    1
 Number of Electrons    NEL             ....  202
 Basis Dimension        Dim             ....  539

ORBITAL ENERGIES
----------------

  NO   OCC          E(Eh)            E(eV)
   0   2.0000     -88.582533     -2410.4533
   1   2.0000     -88.577649     -2410.3204
   2   2.0000     -88.526577     -2408.9306
   3   2.0000     -88.525954     -2408.9137
   4   2.0000     -76.918034     -2093.0461
   5   2.0000     -76.917897     -2093.0424
   6   2.0000     -18.994923      -516.8781
   7   2.0000     -18.991486      -516.7846
   8   2.0000     -18.991410      -516.7825
   9   2.0000     -18.990357      -516.7539
  10   2.0000     -10.104662      -274.9618
  11   2.0000     -10.091146      -274.5940
  12   2.0000     -10.088932      -274.5338
  13   2.0000     -10.088269      -274.5158
  14   2.0000     -10.087727      -274.5010
  15   2.0000     -10.018623      -272.6206
  16   2.0000     -10.018385      -272.6141
  17   2.0000     -10.017923      -272.6016
  18   2.0000     -10.014733      -272.5147
  19   2.0000      -7.876827      -214.3394
  20   2.0000      -7.872106      -214.2109
  21   2.0000      -7.821518      -212.8343
  22   2.0000      -7.821022      -212.8208
  23   2.0000      -6.596429      -179.4980
  24   2.0000      -6.596411      -179.4975
  25   2.0000      -5.823775      -158.4730
  26   2.0000      -5.820633      -158.3875
  27   2.0000      -5.818890      -158.3400
  28   2.0000      -5.816079      -158.2636
  29   2.0000      -5.813919      -158.2048
  30   2.0000      -5.809140      -158.0747
  31   2.0000      -5.769059      -156.9841
  32   2.0000      -5.768750      -156.9757
  33   2.0000      -5.761921      -156.7898
  34   2.0000      -5.761472      -156.7776
  35   2.0000      -5.761306      -156.7731
  36   2.0000      -5.760865      -156.7611
  37   2.0000      -4.742152      -129.0405
  38   2.0000      -4.741733      -129.0291
  39   2.0000      -4.741339      -129.0184
  40   2.0000      -4.741205      -129.0147
  41   2.0000      -4.740375      -128.9922
  42   2.0000      -4.740102      -128.9847
  43   2.0000      -1.051526       -28.6135
  44   2.0000      -1.048098       -28.5202
  45   2.0000      -1.011600       -27.5270
  46   2.0000      -1.009419       -27.4677
  47   2.0000      -0.802540       -21.8382
  48   2.0000      -0.756532       -20.5863
  49   2.0000      -0.742840       -20.2137
  50   2.0000      -0.726872       -19.7792
  51   2.0000      -0.722756       -19.6672
  52   2.0000      -0.707883       -19.2625
  53   2.0000      -0.688814       -18.7436
  54   2.0000      -0.671828       -18.2814
  55   2.0000      -0.631721       -17.1900
  56   2.0000      -0.617676       -16.8078
  57   2.0000      -0.601436       -16.3659
  58   2.0000      -0.595556       -16.2059
  59   2.0000      -0.587825       -15.9955
  60   2.0000      -0.522641       -14.2218
  61   2.0000      -0.516894       -14.0654
  62   2.0000      -0.493351       -13.4248
  63   2.0000      -0.491282       -13.3685
  64   2.0000      -0.469888       -12.7863
  65   2.0000      -0.465746       -12.6736
  66   2.0000      -0.451088       -12.2747
  67   2.0000      -0.448465       -12.2033
  68   2.0000      -0.440510       -11.9869
  69   2.0000      -0.428348       -11.6559
  70   2.0000      -0.416122       -11.3233
  71   2.0000      -0.412750       -11.2315
  72   2.0000      -0.405124       -11.0240
  73   2.0000      -0.403482       -10.9793
  74   2.0000      -0.390271       -10.6198
  75   2.0000      -0.388448       -10.5702
  76   2.0000      -0.383233       -10.4283
  77   2.0000      -0.370236       -10.0746
  78   2.0000      -0.364630        -9.9221
  79   2.0000      -0.357221        -9.7205
  80   2.0000      -0.353254        -9.6125
  81   2.0000      -0.351816        -9.5734
  82   2.0000      -0.348837        -9.4923
  83   2.0000      -0.346579        -9.4309
  84   2.0000      -0.343059        -9.3351
  85   2.0000      -0.327784        -8.9195
  86   2.0000      -0.323042        -8.7904
  87   2.0000      -0.315572        -8.5871
  88   2.0000      -0.301644        -8.2082
  89   2.0000      -0.298784        -8.1303
  90   2.0000      -0.294388        -8.0107
  91   2.0000      -0.288643        -7.8544
  92   2.0000      -0.284550        -7.7430
  93   2.0000      -0.284045        -7.7293
  94   2.0000      -0.276726        -7.5301
  95   2.0000      -0.248027        -6.7492
  96   2.0000      -0.243525        -6.6266
  97   2.0000      -0.233370        -6.3503
  98   2.0000      -0.221319        -6.0224
  99   2.0000      -0.220458        -5.9990
 100   2.0000      -0.211444        -5.7537
 101   0.0000      -0.052750        -1.4354
 102   0.0000      -0.041505        -1.1294
 103   0.0000      -0.007891        -0.2147
 104   0.0000       0.010586         0.2881
 105   0.0000       0.012502         0.3402

MULLIKEN ATOMIC CHARGES
-----------------------
   0 C :   -0.486900
   1 C :   -0.140890
   2 O :   -0.298765
   3 P :    0.705756
   4 S :   -0.516631
   5 O :   -0.322140
   6 C :   -0.148734
   7 C :   -0.480889
   8 S :   -0.139560
   9 C :   -0.235979
  10 S :   -0.153983
  11 P :    0.668533
  12 S :   -0.458884
  13 O :   -0.343445
  14 C :   -0.155712
  15 C :   -0.475476
  16 O :   -0.288868
  17 C :   -0.104506
  18 C :   -0.497461
  19 H :    0.171263
  20 H :    0.169046
  21 H :    0.164370
  22 H :    0.167084
  23 H :    0.173844
  24 H :    0.174930
  25 H :    0.173189
  26 H :    0.167500
  27 H :    0.171689
  28 H :    0.168646
  29 H :    0.216472
  30 H :    0.230210
  31 H :    0.174702
  32 H :    0.178310
  33 H :    0.167441
  34 H :    0.172721
  35 H :    0.172257
  36 H :    0.176265
  37 H :    0.180352
  38 H :    0.171758
  39 H :    0.161297
  40 H :    0.171188
Sum of atomic charges:    0.0000000

LOEWDIN ATOMIC CHARGES
----------------------
   0 C :   -0.410872
   1 C :    0.024201
   2 O :   -0.670833
   3 P :    0.383470
   4 S :   -0.160279
   5 O :   -0.687345
   6 C :    0.024730
   7 C :   -0.403689
   8 S :    0.167840
   9 C :   -0.401343
  10 S :    0.158758
  11 P :    0.379511
  12 S :   -0.111695
  13 O :   -0.700855
  14 C :    0.025642
  15 C :   -0.400997
  16 O :   -0.695950
  17 C :    0.026375
  18 C :   -0.403991
  19 H :    0.167982
  20 H :    0.168570
  21 H :    0.162126
  22 H :    0.182007
  23 H :    0.187176
  24 H :    0.181106
  25 H :    0.189779
  26 H :    0.162550
  27 H :    0.168296
  28 H :    0.163878
  29 H :    0.196781
  30 H :    0.194170
  31 H :    0.189888
  32 H :    0.180956
  33 H :    0.163324
  34 H :    0.168583
  35 H :    0.163400
  36 H :    0.184002
  37 H :    0.190884
  38 H :    0.163794
  39 H :    0.159897
  40 H :    0.168173

  Mayer bond orders larger than 0.100000
B(  0-C ,  1-C ) :   0.9335 B(  0-C , 19-H ) :   0.9557 B(  0-C , 20-H ) :   0.9613
B(  0-C , 21-H ) :   0.9714 B(  1-C ,  2-O ) :   0.7595 B(  1-C , 22-H ) :   0.9532
B(  1-C , 23-H ) :   0.9565 B(  2-O ,  3-P ) :   1.1006 B(  3-P ,  4-S ) :   1.7128
B(  3-P ,  5-O ) :   1.1768 B(  3-P ,  8-S ) :   1.0847 B(  5-O ,  6-C ) :   0.8027
B(  6-C ,  7-C ) :   0.9158 B(  6-C , 24-H ) :   0.9605 B(  6-C , 25-H ) :   0.9516
B(  7-C , 26-H ) :   0.9597 B(  7-C , 27-H ) :   0.9563 B(  7-C , 28-H ) :   0.9703
B(  8-S ,  9-C ) :   0.8922 B(  9-C , 10-S ) :   0.9207 B(  9-C , 29-H ) :   0.9066
B(  9-C , 30-H ) :   0.8999 B( 10-S , 11-P ) :   1.0532 B( 11-P , 12-S ) :   1.8205
B( 11-P , 13-O ) :   1.1006 B( 11-P , 16-O ) :   1.0579 B( 13-O , 14-C ) :   0.8037
B( 14-C , 15-C ) :   0.9082 B( 14-C , 31-H ) :   0.9509 B( 14-C , 32-H ) :   0.9663
B( 15-C , 33-H ) :   0.9647 B( 15-C , 34-H ) :   0.9562 B( 15-C , 35-H ) :   0.9639
B( 16-O , 17-C ) :   0.7331 B( 17-C , 18-C ) :   0.9350 B( 17-C , 36-H ) :   0.9628
B( 17-C , 37-H ) :   0.9463 B( 18-C , 38-H ) :   0.9680 B( 18-C , 39-H ) :   0.9640
B( 18-C , 40-H ) :   0.9573

Dispersion correction           -0.022049853
FINAL SINGLE POINT ENERGY     -2932.467087364208

DIPOLE MOMENT
-------------

Method             : SCF
Type of density    : Electron Density
Multiplicity       :   1
Irrep              :   0
Energy             : -2932.4917008598831671 Eh
Relativity type    :
Basis              : AO
                                X                 Y                 Z
Electronic contribution:     -0.942158327      -0.630080361      16.156786176
Nuclear contribution   :     -0.183051093      -0.304012673     -17.552815818
                        -----------------------------------------
Total Dipole Moment    :     -1.125209420      -0.934093034      -1.396029642
                        -----------------------------------------
Magnitude (a.u.)       :      2.021762794
Magnitude (Debye)      :      5.138912626

Rotational constants in cm-1:             0.013884             0.004823             0.004696
Rotational constants in MHz :           416.245829           144.581165           140.790906

                             ****ORCA TERMINATED NORMALLY****
TOTAL RUN TIME: 0 days 0 hours 1 minutes 56 seconds 397 msec
