                         Program Version 6.0.0  -   RELEASE  -
|  1> ! pbe def2-sv(p) def2/J RI DEFGRID1 loosescf d4 GCP(DFT/SV(P)) printgap
|  2> %output
|  3>     printlevel normal
|  4> end
|  5> * xyz 0 1
|  6> C 1.6254111206 1.3986835156 -1.8911933316
|  7> C 2.1867684881 1.9921957615 -0.61614716
|  8> O 1.7072689451 1.3091874949 0.5693890179
|  9> P 2.1289385604 -0.1340934937 1.0430322081
| 10> S 1.8780513302 -0.3779099042 2.9683535815
| 11> O 3.623579341 -0.2363429582 0.520331412
| 12> C 4.4428511797 -1.3810530574 0.8403866622
| 13> C 5.8815423049 -1.0222982465 0.5295657094
| 14> S 1.119262757 -1.5897433751 -0.1530193573
| 15> C -0.367530469 -1.7109090198 0.8734013067
| 16> S -1.2073734705 -0.1209315879 1.0924539228
| 17> P -2.1713736782 -0.0060564003 -0.7978072493
| 18> S -1.5672538297 -1.1080355338 -2.2892892118
| 19> O -2.12874161 1.5376668467 -1.1687848878
| 20> C -2.5324695734 2.5726240228 -0.2399926094
| 21> C -1.3259570939 3.3803095794 0.1952927482
| 22> O -3.6539446002 -0.3285718083 -0.285770711
| 23> C -4.6828805081 -0.7800583975 -1.186432059
| 24> C -5.1612004121 0.3366256731 -2.092355162
| 25> H 0.5382700206 1.3505183909 -1.8488227987
| 26> H 1.9153187878 2.0220451203 -2.7312428904
| 27> H 2.0082294451 0.3925099138 -2.0505285428
| 28> H 1.8444045423 3.0173487051 -0.4658113392
| 29> H 3.2770697117 1.9589021148 -0.6163316191
| 30> H 4.3062501186 -1.6199028537 1.9000917804
| 31> H 4.0997503502 -2.2247457655 0.2356894005
| 32> H 6.1931986116 -0.1734807183 1.1317021627
| 33> H 6.5156729909 -1.8731755593 0.7554228027
| 34> H 5.9831827605 -0.7675617397 -0.5213454579
| 35> H -0.0867780637 -2.0404163917 1.873272031
| 36> H -1.0265545444 -2.4245451594 0.3840097328
| 37> H -3.2417231182 3.1919011478 -0.7923415954
| 38> H -3.0317974226 2.1118982454 0.6168103074
| 39> H -1.6531606802 4.1846356024 0.8465127724
| 40> H -0.6220755118 2.7522472295 0.7378946314
| 41> H -0.8303261469 3.8014808029 -0.6750998743
| 42> H -4.2863782249 -1.6110310968 -1.77826732
| 43> H -5.4749300516 -1.1372282092 -0.5269065904
| 44> H -5.5201083856 1.1758878751 -1.5021170702
| 45> H -4.3410663532 0.6715147068 -2.7269206258
| 46> H -5.9661709125 -0.0304861515 -2.7212350586
| 47> *
| 48>
| 49>                          ****END OF INPUT****

CARTESIAN COORDINATES (ANGSTROEM)
---------------------------------
  C      1.625411    1.398684   -1.891193
  C      2.186768    1.992196   -0.616147
  O      1.707269    1.309187    0.569389
  P      2.128939   -0.134093    1.043032
  S      1.878051   -0.377910    2.968354
  O      3.623579   -0.236343    0.520331
  C      4.442851   -1.381053    0.840387
  C      5.881542   -1.022298    0.529566
  S      1.119263   -1.589743   -0.153019
  C     -0.367530   -1.710909    0.873401
  S     -1.207373   -0.120932    1.092454
  P     -2.171374   -0.006056   -0.797807
  S     -1.567254   -1.108036   -2.289289
  O     -2.128742    1.537667   -1.168785
  C     -2.532470    2.572624   -0.239993
  C     -1.325957    3.380310    0.195293
  O     -3.653945   -0.328572   -0.285771
  C     -4.682881   -0.780058   -1.186432
  C     -5.161200    0.336626   -2.092355
  H      0.538270    1.350518   -1.848823
  H      1.915319    2.022045   -2.731243
  H      2.008229    0.392510   -2.050529
  H      1.844405    3.017349   -0.465811
  H      3.277070    1.958902   -0.616332
  H      4.306250   -1.619903    1.900092
  H      4.099750   -2.224746    0.235689
  H      6.193199   -0.173481    1.131702
  H      6.515673   -1.873176    0.755423
  H      5.983183   -0.767562   -0.521345
  H     -0.086778   -2.040416    1.873272
  H     -1.026555   -2.424545    0.384010
  H     -3.241723    3.191901   -0.792342
  H     -3.031797    2.111898    0.616810
  H     -1.653161    4.184636    0.846513
  H     -0.622076    2.752247    0.737895
  H     -0.830326    3.801481   -0.675100
  H     -4.286378   -1.611031   -1.778267
  H     -5.474930   -1.137228   -0.526907
  H     -5.520108    1.175888   -1.502117
  H     -4.341066    0.671515   -2.726921
  H     -5.966171   -0.030486   -2.721235

 Total Charge           Charge          ....    0
 Multiplicity           Mult            ....    1
 Number of Electrons    NEL             ....  202
 Basis Dimension        Dim             ....  334

ORBITAL ENERGIES
----------------

  NO   OCC          E(Eh)            E(eV)
   0   2.0000     -88.039879     -2395.6869
   1   2.0000     -88.035084     -2395.5564
   2   2.0000     -87.989396     -2394.3132
   3   2.0000     -87.979554     -2394.0454
   4   2.0000     -76.425464     -2079.6426
   5   2.0000     -76.423401     -2079.5865
   6   2.0000     -18.796449      -511.4774
   7   2.0000     -18.795612      -511.4546
   8   2.0000     -18.789774      -511.2957
   9   2.0000     -18.788423      -511.2590
  10   2.0000      -9.961289      -271.0605
  11   2.0000      -9.954290      -270.8700
  12   2.0000      -9.953615      -270.8516
  13   2.0000      -9.952316      -270.8163
  14   2.0000      -9.951086      -270.7828
  15   2.0000      -9.889863      -269.1169
  16   2.0000      -9.888056      -269.0677
  17   2.0000      -9.887034      -269.0399
  18   2.0000      -9.877642      -268.7843
  19   2.0000      -7.684707      -209.1115
  20   2.0000      -7.679930      -208.9815
  21   2.0000      -7.634577      -207.7474
  22   2.0000      -7.624917      -207.4845
  23   2.0000      -6.423373      -174.7889
  24   2.0000      -6.420657      -174.7150
  25   2.0000      -5.712624      -155.4484
  26   2.0000      -5.709440      -155.3618
  27   2.0000      -5.707735      -155.3154
  28   2.0000      -5.704571      -155.2293
  29   2.0000      -5.701399      -155.1429
  30   2.0000      -5.696907      -155.0207
  31   2.0000      -5.663583      -154.1139
  32   2.0000      -5.655250      -153.8872
  33   2.0000      -5.654551      -153.8682
  34   2.0000      -5.653883      -153.8500
  35   2.0000      -5.645677      -153.6267
  36   2.0000      -5.644861      -153.6045
  37   2.0000      -4.646223      -126.4301
  38   2.0000      -4.644776      -126.3908
  39   2.0000      -4.643917      -126.3674
  40   2.0000      -4.643791      -126.3640
  41   2.0000      -4.642255      -126.3222
  42   2.0000      -4.640781      -126.2821
  43   2.0000      -0.988110       -26.8878
  44   2.0000      -0.986221       -26.8364
  45   2.0000      -0.945589       -25.7308
  46   2.0000      -0.943479       -25.6734
  47   2.0000      -0.761466       -20.7206
  48   2.0000      -0.721030       -19.6202
  49   2.0000      -0.711022       -19.3479
  50   2.0000      -0.693431       -18.8692
  51   2.0000      -0.690433       -18.7876
  52   2.0000      -0.670569       -18.2471
  53   2.0000      -0.649741       -17.6803
  54   2.0000      -0.635420       -17.2907
  55   2.0000      -0.593686       -16.1550
  56   2.0000      -0.586979       -15.9725
  57   2.0000      -0.578676       -15.7466
  58   2.0000      -0.572277       -15.5725
  59   2.0000      -0.559953       -15.2371
  60   2.0000      -0.507710       -13.8155
  61   2.0000      -0.503158       -13.6916
  62   2.0000      -0.480103       -13.0643
  63   2.0000      -0.473031       -12.8718
  64   2.0000      -0.460055       -12.5187
  65   2.0000      -0.445222       -12.1151
  66   2.0000      -0.443283       -12.0623
  67   2.0000      -0.435521       -11.8511
  68   2.0000      -0.430372       -11.7110
  69   2.0000      -0.413199       -11.2437
  70   2.0000      -0.406334       -11.0569
  71   2.0000      -0.396815       -10.7979
  72   2.0000      -0.394176       -10.7261
  73   2.0000      -0.378998       -10.3131
  74   2.0000      -0.375129       -10.2078
  75   2.0000      -0.374143       -10.1809
  76   2.0000      -0.367928       -10.0118
  77   2.0000      -0.359736        -9.7889
  78   2.0000      -0.355516        -9.6741
  79   2.0000      -0.352335        -9.5875
  80   2.0000      -0.346996        -9.4422
  81   2.0000      -0.345540        -9.4026
  82   2.0000      -0.343457        -9.3460
  83   2.0000      -0.336811        -9.1651
  84   2.0000      -0.334675        -9.1070
  85   2.0000      -0.323127        -8.7927
  86   2.0000      -0.313913        -8.5420
  87   2.0000      -0.308911        -8.4059
  88   2.0000      -0.303287        -8.2529
  89   2.0000      -0.291349        -7.9280
  90   2.0000      -0.280469        -7.6319
  91   2.0000      -0.275808        -7.5051
  92   2.0000      -0.270275        -7.3546
  93   2.0000      -0.267617        -7.2822
  94   2.0000      -0.256515        -6.9801
  95   2.0000      -0.232379        -6.3234
  96   2.0000      -0.212298        -5.7769
  97   2.0000      -0.207922        -5.6578
  98   2.0000      -0.205495        -5.5918
  99   2.0000      -0.199959        -5.4412
 100   2.0000      -0.188041        -5.1168
 101   0.0000      -0.045602        -1.2409
 102   0.0000      -0.027991        -0.7617
 103   0.0000      -0.002398        -0.0652
 104   0.0000       0.008193         0.2229
 105   0.0000       0.012146         0.3305

MULLIKEN ATOMIC CHARGES
-----------------------
   0 C :   -0.330328
   1 C :   -0.004142
   2 O :   -0.357843
   3 P :    0.615836
   4 S :   -0.327838
   5 O :   -0.389627
   6 C :   -0.010577
   7 C :   -0.281395
   8 S :   -0.087463
   9 C :   -0.339733
  10 S :   -0.081840
  11 P :    0.604419
  12 S :   -0.305606
  13 O :   -0.371025
  14 C :   -0.035697
  15 C :   -0.313701
  16 O :   -0.377813
  17 C :   -0.009884
  18 C :   -0.316241
  19 H :    0.143645
  20 H :    0.106668
  21 H :    0.124009
  22 H :    0.107084
  23 H :    0.110170
  24 H :    0.107654
  25 H :    0.106080
  26 H :    0.121138
  27 H :    0.113839
  28 H :    0.115371
  29 H :    0.194733
  30 H :    0.181167
  31 H :    0.111568
  32 H :    0.115033
  33 H :    0.112491
  34 H :    0.157096
  35 H :    0.119483
  36 H :    0.111738
  37 H :    0.105410
  38 H :    0.112338
  39 H :    0.129896
  40 H :    0.113884
Sum of atomic charges:   -0.0000000

LOEWDIN ATOMIC CHARGES
----------------------
   0 C :   -0.370060
   1 C :   -0.109855
   2 O :   -0.233935
   3 P :    0.566786
   4 S :   -0.323769
   5 O :   -0.250151
   6 C :   -0.119676
   7 C :   -0.350541
   8 S :    0.074910
   9 C :   -0.475400
  10 S :    0.094365
  11 P :    0.567351
  12 S :   -0.297847
  13 O :   -0.244287
  14 C :   -0.118749
  15 C :   -0.362918
  16 O :   -0.258648
  17 C :   -0.122280
  18 C :   -0.365804
  19 H :    0.125278
  20 H :    0.129064
  21 H :    0.119446
  22 H :    0.117761
  23 H :    0.113063
  24 H :    0.110822
  25 H :    0.109721
  26 H :    0.129117
  27 H :    0.131990
  28 H :    0.126006
  29 H :    0.132488
  30 H :    0.131337
  31 H :    0.119595
  32 H :    0.109480
  33 H :    0.131421
  34 H :    0.130871
  35 H :    0.125928
  36 H :    0.109198
  37 H :    0.118390
  38 H :    0.122387
  39 H :    0.125672
  40 H :    0.131474

  Mayer bond orders larger than 0.100000
B(  0-C ,  1-C ) :   1.1704 B(  0-C , 19-H ) :   0.9273 B(  0-C , 20-H ) :   0.9356
B(  0-C , 21-H ) :   0.9386 B(  1-C ,  2-O ) :   0.8902 B(  1-C , 22-H ) :   0.9300
B(  1-C , 23-H ) :   0.9246 B(  2-O ,  3-P ) :   1.1300 B(  3-P ,  4-S ) :   1.6383
B(  3-P ,  5-O ) :   1.0780 B(  3-P ,  8-S ) :   0.9486 B(  4-S ,  8-S ) :   0.1121
B(  5-O ,  6-C ) :   0.9009 B(  6-C ,  7-C ) :   1.1595 B(  6-C , 24-H ) :   0.9109
B(  6-C , 25-H ) :   0.9274 B(  7-C , 26-H ) :   0.9508 B(  7-C , 27-H ) :   0.9417
B(  7-C , 28-H ) :   0.9511 B(  8-S ,  9-C ) :   1.0071 B(  9-C , 10-S ) :   1.0083
B(  9-C , 29-H ) :   0.8820 B(  9-C , 30-H ) :   0.8947 B( 10-S , 11-P ) :   0.9521
B( 10-S , 12-S ) :   0.1095 B( 11-P , 12-S ) :   1.6303 B( 11-P , 13-O ) :   1.0868
B( 11-P , 16-O ) :   1.0794 B( 13-O , 14-C ) :   0.9018 B( 14-C , 15-C ) :   1.1672
B( 14-C , 31-H ) :   0.9317 B( 14-C , 32-H ) :   0.9151 B( 15-C , 33-H ) :   0.9375
B( 15-C , 34-H ) :   0.9278 B( 15-C , 35-H ) :   0.9425 B( 16-O , 17-C ) :   0.9154
B( 17-C , 18-C ) :   1.1604 B( 17-C , 36-H ) :   0.9129 B( 17-C , 37-H ) :   0.9343
B( 18-C , 38-H ) :   0.9469 B( 18-C , 39-H ) :   0.9361 B( 18-C , 40-H ) :   0.9394

Dispersion correction           -0.065823812
FINAL SINGLE POINT ENERGY     -2929.519195548988

DIPOLE MOMENT
-------------

Method             : SCF
Type of density    : Electron Density
Multiplicity       :   1
Irrep              :   0
Energy             : -2929.6387662493916650 Eh
Relativity type    :
Basis              : AO
                                X                 Y                 Z
Electronic contribution:     -0.858714736     -11.555086787       9.456869882
Nuclear contribution   :      0.587941851      12.192901290     -10.099243982
                        -----------------------------------------
Total Dipole Moment    :     -0.270772885       0.637814502      -0.642374100
                        -----------------------------------------
Magnitude (a.u.)       :      0.944864953
Magnitude (Debye)      :      2.401655848

Rotational constants in cm-1:             0.014520             0.004609             0.004473
Rotational constants in MHz :           435.312356           138.179782           134.102865

                             ****ORCA TERMINATED NORMALLY****
TOTAL RUN TIME: 0 days 0 hours 0 minutes 21 seconds 534 msec
