                         Program Version 6.0.0  -   RELEASE  -
|  1> ! pbe def2-sv(p) def2/J RI DEFGRID1 loosescf d4 GCP(DFT/SV(P)) printgap
|  2> %output
|  3>     printlevel normal
|  4> end
|  5> * xyz 0 1
|  6> C 5.2072680918 -1.1637539303 -1.9241287413
|  7> C 4.9559963555 -0.3294118429 -0.6837845979
|  8> O 3.6915035533 -0.6923510741 -0.0822334942
|  9> P 2.3802740537 0.1628249752 -0.3169145827
| 10> S 1.9790242723 0.6420647943 -2.1799881631
| 11> O 2.6769339302 1.4047282266 0.6340108225
| 12> C 1.8756257512 2.5971849703 0.6915521411
| 13> C 0.9753233273 2.5756546153 1.9105586822
| 14> S 1.0416175597 -1.0923643802 0.7059845036
| 15> C 0.0673519721 -1.6974558262 -0.7226088395
| 16> S -1.6487638368 -1.9874723903 -0.2759557737
| 17> P -2.1547853447 0.019800286 0.2568943078
| 18> S -1.3188769565 1.4451325057 -0.7926750114
| 19> O -1.7693884754 0.2002570436 1.7740766646
| 20> C -2.240122395 -0.6734628848 2.8304638289
| 21> C -3.3847990391 -0.0243468213 3.5809527705
| 22> O -3.7403675909 -0.0354005079 0.3225438339
| 23> C -4.5985748204 -0.5673197093 -0.7045649951
| 24> C -4.3398768599 0.0497825936 -2.0627036875
| 25> H 4.454365041 -0.9471763758 -2.679126991
| 26> H 6.1883382601 -0.926743493 -2.3230516585
| 27> H 5.1631769185 -2.2203916307 -1.6761973034
| 28> H 4.9506095626 0.7378724532 -0.9204200704
| 29> H 5.6980941312 -0.5288832494 0.0909664375
| 30> H 2.5952573153 3.4164336948 0.7467174737
| 31> H 1.2914452327 2.687795228 -0.2306663634
| 32> H 0.467721508 3.5314330814 1.9919012146
| 33> H 0.2261141867 1.7916616983 1.8172572622
| 34> H 1.5652127361 2.3974738736 2.8052091223
| 35> H 0.4651033091 -2.6541954417 -1.0516894974
| 36> H 0.1247306387 -0.947579897 -1.517408025
| 37> H -2.5409665557 -1.6298560435 2.3941796826
| 38> H -1.3701600725 -0.8223109988 3.4728090024
| 39> H -3.0709660764 0.9353431996 3.9818684038
| 40> H -4.2285435666 0.1346172382 2.9147526374
| 41> H -3.6874705286 -0.6729571966 4.3969208145
| 42> H -4.4562005972 -1.6507834658 -0.7386587772
| 43> H -5.6028613344 -0.3337883819 -0.3467690451
| 44> H -4.4178142845 1.1333318786 -2.0095523203
| 45> H -3.3381640063 -0.2042732222 -2.4073930867
| 46> H -5.0646224109 -0.328592356 -2.7763122199
| 47> *
| 48>
| 49>                          ****END OF INPUT****

CARTESIAN COORDINATES (ANGSTROEM)
---------------------------------
  C      5.207268   -1.163754   -1.924129
  C      4.955996   -0.329412   -0.683785
  O      3.691504   -0.692351   -0.082233
  P      2.380274    0.162825   -0.316915
  S      1.979024    0.642065   -2.179988
  O      2.676934    1.404728    0.634011
  C      1.875626    2.597185    0.691552
  C      0.975323    2.575655    1.910559
  S      1.041618   -1.092364    0.705985
  C      0.067352   -1.697456   -0.722609
  S     -1.648764   -1.987472   -0.275956
  P     -2.154785    0.019800    0.256894
  S     -1.318877    1.445133   -0.792675
  O     -1.769388    0.200257    1.774077
  C     -2.240122   -0.673463    2.830464
  C     -3.384799   -0.024347    3.580953
  O     -3.740368   -0.035401    0.322544
  C     -4.598575   -0.567320   -0.704565
  C     -4.339877    0.049783   -2.062704
  H      4.454365   -0.947176   -2.679127
  H      6.188338   -0.926743   -2.323052
  H      5.163177   -2.220392   -1.676197
  H      4.950610    0.737872   -0.920420
  H      5.698094   -0.528883    0.090966
  H      2.595257    3.416434    0.746717
  H      1.291445    2.687795   -0.230666
  H      0.467722    3.531433    1.991901
  H      0.226114    1.791662    1.817257
  H      1.565213    2.397474    2.805209
  H      0.465103   -2.654195   -1.051689
  H      0.124731   -0.947580   -1.517408
  H     -2.540967   -1.629856    2.394180
  H     -1.370160   -0.822311    3.472809
  H     -3.070966    0.935343    3.981868
  H     -4.228544    0.134617    2.914753
  H     -3.687471   -0.672957    4.396921
  H     -4.456201   -1.650783   -0.738659
  H     -5.602861   -0.333788   -0.346769
  H     -4.417814    1.133332   -2.009552
  H     -3.338164   -0.204273   -2.407393
  H     -5.064622   -0.328592   -2.776312

 Total Charge           Charge          ....    0
 Multiplicity           Mult            ....    1
 Number of Electrons    NEL             ....  202
 Basis Dimension        Dim             ....  334

ORBITAL ENERGIES
----------------

  NO   OCC          E(Eh)            E(eV)
   0   2.0000     -88.049626     -2395.9521
   1   2.0000     -88.038486     -2395.6490
   2   2.0000     -87.981729     -2394.1046
   3   2.0000     -87.980945     -2394.0832
   4   2.0000     -76.428389     -2079.7222
   5   2.0000     -76.419409     -2079.4778
   6   2.0000     -18.799379      -511.5571
   7   2.0000     -18.793246      -511.3902
   8   2.0000     -18.783468      -511.1242
   9   2.0000     -18.781218      -511.0629
  10   2.0000      -9.962647      -271.0974
  11   2.0000      -9.956576      -270.9322
  12   2.0000      -9.953616      -270.8517
  13   2.0000      -9.947913      -270.6965
  14   2.0000      -9.937959      -270.4256
  15   2.0000      -9.888093      -269.0687
  16   2.0000      -9.885146      -268.9885
  17   2.0000      -9.876770      -268.7606
  18   2.0000      -9.867054      -268.4962
  19   2.0000      -7.694457      -209.3768
  20   2.0000      -7.683681      -209.0836
  21   2.0000      -7.626645      -207.5316
  22   2.0000      -7.625892      -207.5111
  23   2.0000      -6.425379      -174.8435
  24   2.0000      -6.417192      -174.6207
  25   2.0000      -5.722246      -155.7102
  26   2.0000      -5.718747      -155.6150
  27   2.0000      -5.711813      -155.4263
  28   2.0000      -5.711562      -155.4195
  29   2.0000      -5.708406      -155.3336
  30   2.0000      -5.700373      -155.1150
  31   2.0000      -5.655790      -153.9019
  32   2.0000      -5.654717      -153.8727
  33   2.0000      -5.647070      -153.6646
  34   2.0000      -5.646762      -153.6562
  35   2.0000      -5.646696      -153.6544
  36   2.0000      -5.645938      -153.6338
  37   2.0000      -4.648214      -126.4843
  38   2.0000      -4.647495      -126.4648
  39   2.0000      -4.645328      -126.4058
  40   2.0000      -4.639630      -126.2508
  41   2.0000      -4.638815      -126.2286
  42   2.0000      -4.637891      -126.2034
  43   2.0000      -0.992466       -27.0064
  44   2.0000      -0.978223       -26.6188
  45   2.0000      -0.948854       -25.8196
  46   2.0000      -0.934797       -25.4371
  47   2.0000      -0.763542       -20.7770
  48   2.0000      -0.721038       -19.6204
  49   2.0000      -0.708491       -19.2790
  50   2.0000      -0.693871       -18.8812
  51   2.0000      -0.676162       -18.3993
  52   2.0000      -0.672919       -18.3110
  53   2.0000      -0.650009       -17.6876
  54   2.0000      -0.631678       -17.1888
  55   2.0000      -0.592709       -16.1284
  56   2.0000      -0.587742       -15.9933
  57   2.0000      -0.577035       -15.7019
  58   2.0000      -0.563214       -15.3258
  59   2.0000      -0.561629       -15.2827
  60   2.0000      -0.505051       -13.7431
  61   2.0000      -0.494148       -13.4464
  62   2.0000      -0.477693       -12.9987
  63   2.0000      -0.465585       -12.6692
  64   2.0000      -0.454770       -12.3749
  65   2.0000      -0.446873       -12.1600
  66   2.0000      -0.440556       -11.9882
  67   2.0000      -0.432375       -11.7655
  68   2.0000      -0.427193       -11.6245
  69   2.0000      -0.413559       -11.2535
  70   2.0000      -0.408956       -11.1282
  71   2.0000      -0.399908       -10.8820
  72   2.0000      -0.390401       -10.6233
  73   2.0000      -0.386724       -10.5233
  74   2.0000      -0.374215       -10.1829
  75   2.0000      -0.368492       -10.0272
  76   2.0000      -0.359419        -9.7803
  77   2.0000      -0.358615        -9.7584
  78   2.0000      -0.351013        -9.5515
  79   2.0000      -0.349235        -9.5032
  80   2.0000      -0.345343        -9.3973
  81   2.0000      -0.342349        -9.3158
  82   2.0000      -0.336775        -9.1641
  83   2.0000      -0.334251        -9.0954
  84   2.0000      -0.322748        -8.7824
  85   2.0000      -0.321443        -8.7469
  86   2.0000      -0.303817        -8.2673
  87   2.0000      -0.300210        -8.1691
  88   2.0000      -0.293406        -7.9840
  89   2.0000      -0.285912        -7.7801
  90   2.0000      -0.281941        -7.6720
  91   2.0000      -0.279502        -7.6056
  92   2.0000      -0.267978        -7.2921
  93   2.0000      -0.265075        -7.2131
  94   2.0000      -0.257083        -6.9956
  95   2.0000      -0.234534        -6.3820
  96   2.0000      -0.221264        -6.0209
  97   2.0000      -0.210426        -5.7260
  98   2.0000      -0.197409        -5.3718
  99   2.0000      -0.194642        -5.2965
 100   2.0000      -0.185877        -5.0580
 101   0.0000      -0.044172        -1.2020
 102   0.0000      -0.031732        -0.8635
 103   0.0000      -0.013433        -0.3655
 104   0.0000       0.011638         0.3167
 105   0.0000       0.018239         0.4963

MULLIKEN ATOMIC CHARGES
-----------------------
   0 C :   -0.288649
   1 C :   -0.001297
   2 O :   -0.370804
   3 P :    0.624397
   4 S :   -0.321422
   5 O :   -0.377615
   6 C :   -0.010328
   7 C :   -0.312128
   8 S :   -0.100514
   9 C :   -0.348689
  10 S :   -0.121046
  11 P :    0.590576
  12 S :   -0.292352
  13 O :   -0.342847
  14 C :   -0.008139
  15 C :   -0.286448
  16 O :   -0.377191
  17 C :   -0.012236
  18 C :   -0.310418
  19 H :    0.124694
  20 H :    0.105662
  21 H :    0.110612
  22 H :    0.102934
  23 H :    0.105116
  24 H :    0.096678
  25 H :    0.119315
  26 H :    0.103888
  27 H :    0.146102
  28 H :    0.101222
  29 H :    0.182104
  30 H :    0.214908
  31 H :    0.097166
  32 H :    0.111846
  33 H :    0.120543
  34 H :    0.119414
  35 H :    0.109521
  36 H :    0.113763
  37 H :    0.110064
  38 H :    0.128706
  39 H :    0.130507
  40 H :    0.112389
Sum of atomic charges:    0.0000000

LOEWDIN ATOMIC CHARGES
----------------------
   0 C :   -0.361380
   1 C :   -0.112215
   2 O :   -0.249478
   3 P :    0.567182
   4 S :   -0.304456
   5 O :   -0.245790
   6 C :   -0.118109
   7 C :   -0.367828
   8 S :    0.079413
   9 C :   -0.478185
  10 S :    0.066571
  11 P :    0.563988
  12 S :   -0.286219
  13 O :   -0.227403
  14 C :   -0.116415
  15 C :   -0.357771
  16 O :   -0.245161
  17 C :   -0.115214
  18 C :   -0.368799
  19 H :    0.124509
  20 H :    0.127451
  21 H :    0.124642
  22 H :    0.110138
  23 H :    0.118061
  24 H :    0.113774
  25 H :    0.107225
  26 H :    0.128465
  27 H :    0.122422
  28 H :    0.119318
  29 H :    0.135011
  30 H :    0.124075
  31 H :    0.102008
  32 H :    0.120886
  33 H :    0.129112
  34 H :    0.126088
  35 H :    0.129194
  36 H :    0.108192
  37 H :    0.121466
  38 H :    0.131499
  39 H :    0.123025
  40 H :    0.130709

  Mayer bond orders larger than 0.100000
B(  0-C ,  1-C ) :   1.1682 B(  0-C , 19-H ) :   0.9352 B(  0-C , 20-H ) :   0.9408
B(  0-C , 21-H ) :   0.9476 B(  1-C ,  2-O ) :   0.8945 B(  1-C , 22-H ) :   0.9157
B(  1-C , 23-H ) :   0.9353 B(  2-O ,  3-P ) :   1.1295 B(  3-P ,  4-S ) :   1.6120
B(  3-P ,  5-O ) :   1.1169 B(  3-P ,  8-S ) :   0.9602 B(  4-S ,  8-S ) :   0.1210
B(  5-O ,  6-C ) :   0.9004 B(  6-C ,  7-C ) :   1.1712 B(  6-C , 24-H ) :   0.9347
B(  6-C , 25-H ) :   0.9038 B(  7-C , 26-H ) :   0.9404 B(  7-C , 27-H ) :   0.9237
B(  7-C , 28-H ) :   0.9461 B(  8-S ,  9-C ) :   0.9915 B(  9-C , 10-S ) :   1.0081
B(  9-C , 29-H ) :   0.9087 B(  9-C , 30-H ) :   0.8450 B( 10-S , 11-P ) :   0.9304
B( 10-S , 12-S ) :   0.1096 B( 11-P , 12-S ) :   1.6625 B( 11-P , 13-O ) :   1.1190
B( 11-P , 16-O ) :   1.0819 B( 13-O , 14-C ) :   0.8886 B( 14-C , 15-C ) :   1.1648
B( 14-C , 31-H ) :   0.9123 B( 14-C , 32-H ) :   0.9340 B( 15-C , 33-H ) :   0.9476
B( 15-C , 34-H ) :   0.9434 B( 15-C , 35-H ) :   0.9406 B( 16-O , 17-C ) :   0.9105
B( 17-C , 18-C ) :   1.1670 B( 17-C , 36-H ) :   0.9264 B( 17-C , 37-H ) :   0.9329
B( 18-C , 38-H ) :   0.9427 B( 18-C , 39-H ) :   0.9321 B( 18-C , 40-H ) :   0.9346

Dispersion correction           -0.065582776
FINAL SINGLE POINT ENERGY     -2929.518951205150

DIPOLE MOMENT
-------------

Method             : SCF
Type of density    : Electron Density
Multiplicity       :   1
Irrep              :   0
Energy             : -2929.6379074125479747 Eh
Relativity type    :
Basis              : AO
                                X                 Y                 Z
Electronic contribution:      3.792556693      -3.347193378      -4.907900665
Nuclear contribution   :     -4.494249931       2.597775372       5.734819473
                        -----------------------------------------
Total Dipole Moment    :     -0.701693238      -0.749418006       0.826918808
                        -----------------------------------------
Magnitude (a.u.)       :      1.318254703
Magnitude (Debye)      :      3.350737168

Rotational constants in cm-1:             0.013188             0.004812             0.004530
Rotational constants in MHz :           395.377683           144.254879           135.820128

                             ****ORCA TERMINATED NORMALLY****
TOTAL RUN TIME: 0 days 0 hours 0 minutes 20 seconds 985 msec
