                         Program Version 6.0.0  -   RELEASE  -
|  1> ! pbe def2-sv(p) def2/J RI DEFGRID1 loosescf d4 GCP(DFT/SV(P)) printgap
|  2> %output
|  3>     printlevel normal
|  4> end
|  5> * xyz 0 1
|  6> C 2.917724761 0.2464886657 -3.072497271
|  7> C 3.667506759 0.8597265453 -1.9070461256
|  8> O 3.5044476148 0.0948798974 -0.7019950126
|  9> P 2.1173980826 -0.0197885714 0.0701150466
| 10> S 1.2026168091 1.7267023561 0.1592530563
| 11> O 2.5620438217 -0.6235813172 1.4585231007
| 12> C 2.7587623047 0.1437502958 2.6685615145
| 13> C 2.0859775077 -0.581577069 3.8166709743
| 14> S 1.3146051359 -1.7658182428 -0.7941314015
| 15> C 0.0041169881 -2.2027716331 0.4115811387
| 16> S -0.7145478323 -0.7978598679 1.2838783152
| 17> P -1.7581906946 0.1082267996 -0.3205875287
| 18> S -1.0745999354 0.2249227785 -2.1494266227
| 19> O -2.1477904819 1.5431576524 0.2150174826
| 20> C -2.2974447241 1.9411795063 1.5958631914
| 21> C -3.4722232969 1.2622042966 2.268274227
| 22> O -3.0480211901 -0.8412947716 -0.2287183606
| 23> C -3.9751431114 -0.9929783685 -1.314217821
| 24> C -4.8511274683 0.2335507491 -1.4707158093
| 25> H 1.8416545058 0.2998767101 -2.8992618437
| 26> H 3.1488325592 0.7935327452 -3.980784248
| 27> H 3.1973841616 -0.7969883607 -3.1957700082
| 28> H 3.3191115319 1.8810048519 -1.719638407
| 29> H 4.745308683 0.8591060549 -2.0747484122
| 30> H 3.8372394902 0.2226936055 2.8183178635
| 31> H 2.3380777852 1.1445758539 2.5231372849
| 32> H 2.2550852064 -0.026186255 4.7332917935
| 33> H 1.0165808819 -0.6599474206 3.6346897435
| 34> H 2.5015214949 -1.5796935355 3.9187911062
| 35> H 0.438290044 -2.8401720048 1.1788049692
| 36> H -0.7651856239 -2.7292754598 -0.1501959274
| 37> H -1.3604711873 1.7277171233 2.1176173566
| 38> H -2.4341537181 3.0219996464 1.5310496256
| 39> H -3.3253461652 0.1843105257 2.2883325847
| 40> H -3.5541628348 1.6280967696 3.2868761628
| 41> H -4.3910514983 1.486302092 1.732733579
| 42> H -3.4103412992 -1.1792424098 -2.2337415465
| 43> H -4.5567565922 -1.8768107197 -1.0482345327
| 44> H -4.2283819229 1.0996628976 -1.6955995362
| 45> H -5.5491015333 0.0781801029 -2.2872834359
| 46> H -5.403881624 0.42406433 -0.5546676063
| 47> *
| 48>
| 49>                          ****END OF INPUT****

CARTESIAN COORDINATES (ANGSTROEM)
---------------------------------
  C      2.917725    0.246489   -3.072497
  C      3.667507    0.859727   -1.907046
  O      3.504448    0.094880   -0.701995
  P      2.117398   -0.019789    0.070115
  S      1.202617    1.726702    0.159253
  O      2.562044   -0.623581    1.458523
  C      2.758762    0.143750    2.668562
  C      2.085978   -0.581577    3.816671
  S      1.314605   -1.765818   -0.794131
  C      0.004117   -2.202772    0.411581
  S     -0.714548   -0.797860    1.283878
  P     -1.758191    0.108227   -0.320588
  S     -1.074600    0.224923   -2.149427
  O     -2.147790    1.543158    0.215017
  C     -2.297445    1.941180    1.595863
  C     -3.472223    1.262204    2.268274
  O     -3.048021   -0.841295   -0.228718
  C     -3.975143   -0.992978   -1.314218
  C     -4.851127    0.233551   -1.470716
  H      1.841655    0.299877   -2.899262
  H      3.148833    0.793533   -3.980784
  H      3.197384   -0.796988   -3.195770
  H      3.319112    1.881005   -1.719638
  H      4.745309    0.859106   -2.074748
  H      3.837239    0.222694    2.818318
  H      2.338078    1.144576    2.523137
  H      2.255085   -0.026186    4.733292
  H      1.016581   -0.659947    3.634690
  H      2.501521   -1.579694    3.918791
  H      0.438290   -2.840172    1.178805
  H     -0.765186   -2.729275   -0.150196
  H     -1.360471    1.727717    2.117617
  H     -2.434154    3.022000    1.531050
  H     -3.325346    0.184311    2.288333
  H     -3.554163    1.628097    3.286876
  H     -4.391051    1.486302    1.732734
  H     -3.410341   -1.179242   -2.233742
  H     -4.556757   -1.876811   -1.048235
  H     -4.228382    1.099663   -1.695600
  H     -5.549102    0.078180   -2.287283
  H     -5.403882    0.424064   -0.554668

 Total Charge           Charge          ....    0
 Multiplicity           Mult            ....    1
 Number of Electrons    NEL             ....  202
 Basis Dimension        Dim             ....  334

ORBITAL ENERGIES
----------------

  NO   OCC          E(Eh)            E(eV)
   0   2.0000     -88.046820     -2395.8758
   1   2.0000     -88.033694     -2395.5186
   2   2.0000     -87.977284     -2393.9836
   3   2.0000     -87.977114     -2393.9790
   4   2.0000     -76.422944     -2079.5740
   5   2.0000     -76.421101     -2079.5239
   6   2.0000     -18.791228      -511.3353
   7   2.0000     -18.788870      -511.2711
   8   2.0000     -18.786160      -511.1974
   9   2.0000     -18.784442      -511.1507
  10   2.0000      -9.961754      -271.0731
  11   2.0000      -9.956191      -270.9217
  12   2.0000      -9.947958      -270.6977
  13   2.0000      -9.944385      -270.6005
  14   2.0000      -9.941953      -270.5343
  15   2.0000      -9.889730      -269.1132
  16   2.0000      -9.886562      -269.0270
  17   2.0000      -9.881602      -268.8921
  18   2.0000      -9.874053      -268.6866
  19   2.0000      -7.691307      -209.2911
  20   2.0000      -7.679189      -208.9614
  21   2.0000      -7.622036      -207.4061
  22   2.0000      -7.621864      -207.4015
  23   2.0000      -6.419980      -174.6965
  24   2.0000      -6.418154      -174.6468
  25   2.0000      -5.719252      -155.6287
  26   2.0000      -5.715962      -155.5392
  27   2.0000      -5.708001      -155.3226
  28   2.0000      -5.707460      -155.3079
  29   2.0000      -5.703751      -155.2070
  30   2.0000      -5.695581      -154.9846
  31   2.0000      -5.651235      -153.7779
  32   2.0000      -5.650794      -153.7659
  33   2.0000      -5.642893      -153.5509
  34   2.0000      -5.642557      -153.5418
  35   2.0000      -5.641982      -153.5261
  36   2.0000      -5.641640      -153.5168
  37   2.0000      -4.642861      -126.3387
  38   2.0000      -4.641783      -126.3093
  39   2.0000      -4.640804      -126.2827
  40   2.0000      -4.640224      -126.2669
  41   2.0000      -4.640076      -126.2629
  42   2.0000      -4.638468      -126.2191
  43   2.0000      -0.980016       -26.6676
  44   2.0000      -0.979654       -26.6577
  45   2.0000      -0.941849       -25.6290
  46   2.0000      -0.939724       -25.5712
  47   2.0000      -0.764590       -20.8055
  48   2.0000      -0.717637       -19.5279
  49   2.0000      -0.708358       -19.2754
  50   2.0000      -0.689599       -18.7649
  51   2.0000      -0.679671       -18.4948
  52   2.0000      -0.667049       -18.1513
  53   2.0000      -0.649273       -17.6676
  54   2.0000      -0.634657       -17.2699
  55   2.0000      -0.596277       -16.2255
  56   2.0000      -0.587196       -15.9784
  57   2.0000      -0.574510       -15.6332
  58   2.0000      -0.566925       -15.4268
  59   2.0000      -0.561972       -15.2920
  60   2.0000      -0.498491       -13.5646
  61   2.0000      -0.493298       -13.4233
  62   2.0000      -0.474532       -12.9127
  63   2.0000      -0.465346       -12.6627
  64   2.0000      -0.456052       -12.4098
  65   2.0000      -0.439144       -11.9497
  66   2.0000      -0.435154       -11.8411
  67   2.0000      -0.430608       -11.7174
  68   2.0000      -0.423695       -11.5293
  69   2.0000      -0.414639       -11.2829
  70   2.0000      -0.409186       -11.1345
  71   2.0000      -0.394268       -10.7286
  72   2.0000      -0.389146       -10.5892
  73   2.0000      -0.385043       -10.4776
  74   2.0000      -0.383723       -10.4416
  75   2.0000      -0.373326       -10.1587
  76   2.0000      -0.364390        -9.9155
  77   2.0000      -0.355975        -9.6866
  78   2.0000      -0.353457        -9.6181
  79   2.0000      -0.351693        -9.5701
  80   2.0000      -0.345690        -9.4067
  81   2.0000      -0.343263        -9.3406
  82   2.0000      -0.341325        -9.2879
  83   2.0000      -0.337207        -9.1759
  84   2.0000      -0.328324        -8.9342
  85   2.0000      -0.315017        -8.5721
  86   2.0000      -0.306816        -8.3489
  87   2.0000      -0.304028        -8.2730
  88   2.0000      -0.289769        -7.8850
  89   2.0000      -0.279292        -7.5999
  90   2.0000      -0.277615        -7.5543
  91   2.0000      -0.269876        -7.3437
  92   2.0000      -0.266432        -7.2500
  93   2.0000      -0.260420        -7.0864
  94   2.0000      -0.254734        -6.9317
  95   2.0000      -0.243197        -6.6177
  96   2.0000      -0.224212        -6.1011
  97   2.0000      -0.205981        -5.6050
  98   2.0000      -0.184904        -5.0315
  99   2.0000      -0.183349        -4.9892
 100   2.0000      -0.177095        -4.8190
 101   0.0000      -0.054201        -1.4749
 102   0.0000      -0.035595        -0.9686
 103   0.0000      -0.010706        -0.2913
 104   0.0000       0.007456         0.2029
 105   0.0000       0.021596         0.5877

MULLIKEN ATOMIC CHARGES
-----------------------
   0 C :   -0.342016
   1 C :    0.001839
   2 O :   -0.370396
   3 P :    0.609711
   4 S :   -0.321309
   5 O :   -0.374311
   6 C :    0.001680
   7 C :   -0.298078
   8 S :   -0.091097
   9 C :   -0.288288
  10 S :   -0.129942
  11 P :    0.623534
  12 S :   -0.284359
  13 O :   -0.364027
  14 C :   -0.022964
  15 C :   -0.314701
  16 O :   -0.386602
  17 C :   -0.007543
  18 C :   -0.314607
  19 H :    0.155895
  20 H :    0.110745
  21 H :    0.116010
  22 H :    0.110346
  23 H :    0.100434
  24 H :    0.104298
  25 H :    0.104727
  26 H :    0.109095
  27 H :    0.122430
  28 H :    0.113518
  29 H :    0.184903
  30 H :    0.179618
  31 H :    0.123730
  32 H :    0.114604
  33 H :    0.128414
  34 H :    0.112100
  35 H :    0.122800
  36 H :    0.108811
  37 H :    0.098097
  38 H :    0.128592
  39 H :    0.109812
  40 H :    0.114496
Sum of atomic charges:    0.0000000

LOEWDIN ATOMIC CHARGES
----------------------
   0 C :   -0.373896
   1 C :   -0.120676
   2 O :   -0.247601
   3 P :    0.563088
   4 S :   -0.312674
   5 O :   -0.247336
   6 C :   -0.116547
   7 C :   -0.356811
   8 S :    0.087740
   9 C :   -0.461656
  10 S :    0.099471
  11 P :    0.567979
  12 S :   -0.288426
  13 O :   -0.232331
  14 C :   -0.117251
  15 C :   -0.367436
  16 O :   -0.260829
  17 C :   -0.126835
  18 C :   -0.364554
  19 H :    0.125109
  20 H :    0.130699
  21 H :    0.122562
  22 H :    0.109205
  23 H :    0.116399
  24 H :    0.115946
  25 H :    0.104768
  26 H :    0.129514
  27 H :    0.118362
  28 H :    0.124603
  29 H :    0.136238
  30 H :    0.133538
  31 H :    0.108258
  32 H :    0.125040
  33 H :    0.121516
  34 H :    0.130972
  35 H :    0.126357
  36 H :    0.106315
  37 H :    0.114651
  38 H :    0.126061
  39 H :    0.129540
  40 H :    0.120931

  Mayer bond orders larger than 0.100000
B(  0-C ,  1-C ) :   1.1640 B(  0-C , 19-H ) :   0.9252 B(  0-C , 20-H ) :   0.9377
B(  0-C , 21-H ) :   0.9436 B(  1-C ,  2-O ) :   0.9098 B(  1-C , 22-H ) :   0.9124
B(  1-C , 23-H ) :   0.9331 B(  2-O ,  3-P ) :   1.1161 B(  3-P ,  4-S ) :   1.5736
B(  3-P ,  5-O ) :   1.1190 B(  3-P ,  8-S ) :   0.9852 B(  4-S ,  8-S ) :   0.1209
B(  5-O ,  6-C ) :   0.8963 B(  6-C ,  7-C ) :   1.1624 B(  6-C , 24-H ) :   0.9341
B(  6-C , 25-H ) :   0.8993 B(  7-C , 26-H ) :   0.9413 B(  7-C , 27-H ) :   0.9431
B(  7-C , 28-H ) :   0.9502 B(  8-S ,  9-C ) :   0.9760 B(  9-C , 10-S ) :   1.0282
B(  9-C , 29-H ) :   0.9099 B(  9-C , 30-H ) :   0.9037 B( 10-S , 11-P ) :   0.9122
B( 10-S , 12-S ) :   0.1106 B( 11-P , 12-S ) :   1.6486 B( 11-P , 13-O ) :   1.1235
B( 11-P , 16-O ) :   1.0590 B( 13-O , 14-C ) :   0.9033 B( 14-C , 15-C ) :   1.1604
B( 14-C , 31-H ) :   0.9150 B( 14-C , 32-H ) :   0.9345 B( 15-C , 33-H ) :   0.9365
B( 15-C , 34-H ) :   0.9370 B( 15-C , 35-H ) :   0.9410 B( 16-O , 17-C ) :   0.9160
B( 17-C , 18-C ) :   1.1636 B( 17-C , 36-H ) :   0.9062 B( 17-C , 37-H ) :   0.9334
B( 18-C , 38-H ) :   0.9368 B( 18-C , 39-H ) :   0.9395 B( 18-C , 40-H ) :   0.9435

Dispersion correction           -0.069609422
FINAL SINGLE POINT ENERGY     -2929.505264386502

DIPOLE MOMENT
-------------

Method             : SCF
Type of density    : Electron Density
Multiplicity       :   1
Irrep              :   0
Energy             : -2929.6198470591871228 Eh
Relativity type    :
Basis              : AO
                                X                 Y                 Z
Electronic contribution:      9.517332612      -3.325950586      -6.590071126
Nuclear contribution   :    -10.029594101       2.908518363       7.712040502
                        -----------------------------------------
Total Dipole Moment    :     -0.512261489      -0.417432223       1.121969376
                        -----------------------------------------
Magnitude (a.u.)       :      1.302104748
Magnitude (Debye)      :      3.309687244

Rotational constants in cm-1:             0.011684             0.006177             0.005207
Rotational constants in MHz :           350.289052           185.174514           156.093382

                             ****ORCA TERMINATED NORMALLY****
TOTAL RUN TIME: 0 days 0 hours 0 minutes 23 seconds 318 msec
