                         Program Version 6.0.0  -   RELEASE  -
|  1> ! pbe def2-sv(p) def2/J RI DEFGRID1 loosescf d4 GCP(DFT/SV(P)) printgap
|  2> %output
|  3>     printlevel normal
|  4> end
|  5> * xyz 0 1
|  6> C 0.8678403553 1.3802370553 -0.5933225766
|  7> C 1.5893702245 0.1486342521 -0.0249921378
|  8> H 2.5539978701 0.0523929099 -0.5340029854
|  9> C 0.7599794115 -1.118632162 -0.3158393458
| 10> H 1.1907053558 -1.9410198071 0.2712208363
| 11> C -0.6945419056 -0.909693281 0.1471896305
| 12> H -1.3207664043 -1.745559394 -0.2017774139
| 13> C -1.2499270672 0.3829400828 -0.4745190966
| 14> H -1.251325644 0.2728651224 -1.5789877002
| 15> O -0.4600911928 1.4931350711 -0.1206448076
| 16> O -2.5261558342 0.5798841139 0.0230083756
| 17> O -0.713874928 -0.8344915713 1.5497220391
| 18> O 0.824688392 -1.3734412778 -1.6967163266
| 19> O 1.8791918368 0.2772219119 1.3411060149
| 20> H 0.8676287505 1.3120176339 -1.6889702308
| 21> H 1.3700438121 2.2908439814 -0.2679337823
| 22> H -2.8049546764 1.4914213846 -0.1547830534
| 23> H -1.5890355465 -0.5127129971 1.8204694098
| 24> H 0.5846430299 -2.2934717848 -1.8771180723
| 25> H 1.0465659056 0.2027037588 1.8393577353
| 26> *
| 27>
| 28>                          ****END OF INPUT****

CARTESIAN COORDINATES (ANGSTROEM)
---------------------------------
  C      0.867840    1.380237   -0.593323
  C      1.589370    0.148634   -0.024992
  H      2.553998    0.052393   -0.534003
  C      0.759979   -1.118632   -0.315839
  H      1.190705   -1.941020    0.271221
  C     -0.694542   -0.909693    0.147190
  H     -1.320766   -1.745559   -0.201777
  C     -1.249927    0.382940   -0.474519
  H     -1.251326    0.272865   -1.578988
  O     -0.460091    1.493135   -0.120645
  O     -2.526156    0.579884    0.023008
  O     -0.713875   -0.834492    1.549722
  O      0.824688   -1.373441   -1.696716
  O      1.879192    0.277222    1.341106
  H      0.867629    1.312018   -1.688970
  H      1.370044    2.290844   -0.267934
  H     -2.804955    1.491421   -0.154783
  H     -1.589036   -0.512713    1.820469
  H      0.584643   -2.293472   -1.877118
  H      1.046566    0.202704    1.839358

 Total Charge           Charge          ....    0
 Multiplicity           Mult            ....    1
 Number of Electrons    NEL             ....   80
 Basis Dimension        Dim             ....  160

ORBITAL ENERGIES
----------------

  NO   OCC          E(Eh)            E(eV)
   0   2.0000     -18.773247      -510.8460
   1   2.0000     -18.767018      -510.6765
   2   2.0000     -18.765382      -510.6320
   3   2.0000     -18.764983      -510.6212
   4   2.0000     -18.730735      -509.6892
   5   2.0000      -9.987440      -271.7721
   6   2.0000      -9.945970      -270.6436
   7   2.0000      -9.945884      -270.6413
   8   2.0000      -9.933874      -270.3145
   9   2.0000      -9.927696      -270.1463
  10   2.0000      -0.988934       -26.9103
  11   2.0000      -0.945596       -25.7310
  12   2.0000      -0.935310       -25.4511
  13   2.0000      -0.923015       -25.1165
  14   2.0000      -0.905202       -24.6318
  15   2.0000      -0.696821       -18.9615
  16   2.0000      -0.672242       -18.2926
  17   2.0000      -0.593885       -16.1604
  18   2.0000      -0.581680       -15.8283
  19   2.0000      -0.524419       -14.2702
  20   2.0000      -0.497146       -13.5280
  21   2.0000      -0.479466       -13.0469
  22   2.0000      -0.473334       -12.8801
  23   2.0000      -0.458935       -12.4882
  24   2.0000      -0.436536       -11.8788
  25   2.0000      -0.414138       -11.2693
  26   2.0000      -0.397431       -10.8146
  27   2.0000      -0.380677       -10.3588
  28   2.0000      -0.369096       -10.0436
  29   2.0000      -0.358631        -9.7588
  30   2.0000      -0.325670        -8.8619
  31   2.0000      -0.311336        -8.4719
  32   2.0000      -0.306365        -8.3366
  33   2.0000      -0.284097        -7.7307
  34   2.0000      -0.270209        -7.3528
  35   2.0000      -0.257346        -7.0027
  36   2.0000      -0.250342        -6.8122
  37   2.0000      -0.230965        -6.2849
  38   2.0000      -0.216151        -5.8818
  39   2.0000      -0.195628        -5.3233
  40   0.0000       0.009169         0.2495
  41   0.0000       0.020827         0.5667
  42   0.0000       0.052883         1.4390
  43   0.0000       0.066641         1.8134
  44   0.0000       0.080164         2.1814

MULLIKEN ATOMIC CHARGES
-----------------------
   0 C :    0.054544
   1 C :    0.048954
   2 H :    0.075454
   3 C :   -0.001407
   4 H :    0.084175
   5 C :    0.065760
   6 H :    0.057996
   7 C :    0.156201
   8 H :    0.047964
   9 O :   -0.323425
  10 O :   -0.392819
  11 O :   -0.429947
  12 O :   -0.410429
  13 O :   -0.433748
  14 H :    0.071468
  15 H :    0.097009
  16 H :    0.313111
  17 H :    0.311633
  18 H :    0.306634
  19 H :    0.300872
Sum of atomic charges:    0.0000000

LOEWDIN ATOMIC CHARGES
----------------------
   0 C :   -0.124297
   1 C :   -0.073372
   2 H :    0.120011
   3 C :   -0.072156
   4 H :    0.109089
   5 C :   -0.088444
   6 H :    0.100515
   7 C :   -0.007406
   8 H :    0.083741
   9 O :   -0.167580
  10 O :   -0.302818
  11 O :   -0.309062
  12 O :   -0.315464
  13 O :   -0.324345
  14 H :    0.105087
  15 H :    0.120104
  16 H :    0.293854
  17 H :    0.288386
  18 H :    0.291998
  19 H :    0.272159

  Mayer bond orders larger than 0.100000
B(  0-C ,  1-C ) :   1.0600 B(  0-C ,  9-O ) :   1.0044 B(  0-C , 14-H ) :   0.8911
B(  0-C , 15-H ) :   0.9214 B(  1-C ,  2-H ) :   0.8919 B(  1-C ,  3-C ) :   0.9918
B(  1-C , 13-O ) :   1.0707 B(  3-C ,  4-H ) :   0.9091 B(  3-C ,  5-C ) :   0.9766
B(  3-C , 12-O ) :   1.0627 B(  5-C ,  6-H ) :   0.8872 B(  5-C ,  7-C ) :   0.9778
B(  5-C , 11-O ) :   1.0191 B(  7-C ,  8-H ) :   0.8921 B(  7-C ,  9-O ) :   1.0354
B(  7-C , 10-O ) :   1.1656 B( 10-O , 16-H ) :   0.8368 B( 11-O , 17-H ) :   0.8220
B( 12-O , 18-H ) :   0.8455 B( 13-O , 19-H ) :   0.8135

Dispersion correction           -0.019820685
FINAL SINGLE POINT ENERGY      -571.420979841321

DIPOLE MOMENT
-------------

Method             : SCF
Type of density    : Electron Density
Multiplicity       :   1
Irrep              :   0
Energy             :  -571.5303943066323882 Eh
Relativity type    :
Basis              : AO
                                X                 Y                 Z
Electronic contribution:     -1.473357609       0.494584354       1.630210570
Nuclear contribution   :      0.592708638      -0.814586869      -2.209588577
                        -----------------------------------------
Total Dipole Moment    :     -0.880648971      -0.320002515      -0.579378007
                        -----------------------------------------
Magnitude (a.u.)       :      1.101645630
Magnitude (Debye)      :      2.800160659

Rotational constants in cm-1:             0.058619             0.040481             0.038454
Rotational constants in MHz :          1757.345488          1213.574978          1152.814062

                             ****ORCA TERMINATED NORMALLY****
TOTAL RUN TIME: 0 days 0 hours 0 minutes 11 seconds 224 msec
