                         Program Version 6.0.1  -  RELEASE   -
|  1> ! pbe def2-sv(p) def2/J RI DEFGRID1 loosescf d4 GCP(DFT/SV(P)) printgap
|  2> %output
|  3>     printlevel normal
|  4> end
|  5> * xyz 0 1
|  6> C 1.5135513926 -4.3056446479 -1.3430467997
|  7> C 2.7230565224 -3.5781587657 -0.7776979969
|  8> O 2.342215414 -2.3016091141 -0.2272680438
|  9> C 2.3692851321 -1.2476517265 -1.0157178343
| 10> O 2.7050009983 -1.2603248424 -2.1790027838
| 11> C 1.9173611271 0.0058809616 -0.2884599081
| 12> C 0.7800168724 0.6493945826 -1.0769947349
| 13> H 1.1031695221 0.7961824436 -2.1135515272
| 14> C 0.3384126875 1.9862980881 -0.5105721341
| 15> O -0.829876543 2.2528899632 -0.3101655667
| 16> O 1.3474623349 2.7870218165 -0.3132729215
| 17> C 1.1021464884 4.0803174712 0.2829461252
| 18> C 1.3056834405 4.0079060858 1.7869726023
| 19> S -0.6757605091 -0.4383471044 -1.1946444796
| 20> P -1.635187624 -0.0577997107 0.6738047529
| 21> S -0.5800951446 0.5357332434 2.2121057426
| 22> O -2.9632329875 0.7663124677 0.456737841
| 23> C -3.909670679 0.4628094869 -0.5850265123
| 24> O -2.280180759 -1.511644132 0.9200317667
| 25> C -1.4595695445 -2.6328163404 1.2542998225
| 26> H 1.0516029916 -3.7082547206 -2.1263411942
| 27> H 1.8314429778 -5.2538525409 -1.7637200787
| 28> H 0.7838282487 -4.4907265605 -0.5595471997
| 29> H 3.4709002372 -3.4088486082 -1.5574185099
| 30> H 3.1601856822 -4.121961197 0.0597750155
| 31> H 2.7506776017 0.7098357353 -0.2490050407
| 32> H 1.6063898873 -0.2467043378 0.726221339
| 33> H 1.8289064149 4.7421091213 -0.1886082349
| 34> H 0.0828335436 4.3904136082 0.0390516347
| 35> H 0.6137795263 3.2913928709 2.2267465524
| 36> H 2.3200270806 3.6949056455 2.0159383132
| 37> H 1.1242107472 4.9853580437 2.22097739
| 38> H -3.4350771215 0.5749114415 -1.5597817897
| 39> H -4.7063183452 1.1917093887 -0.4614186798
| 40> H -4.285730357 -0.5515041948 -0.4630203627
| 41> H -0.83717059 -2.9033898266 0.4010256017
| 42> H -2.1472335043 -3.4377463652 1.4997992906
| 43> H -0.8279291523 -2.3928896148 2.1113788047
| 44> *
| 45>
| 46>                          ****END OF INPUT****

CARTESIAN COORDINATES (ANGSTROEM)
---------------------------------
  C      1.513551   -4.305645   -1.343047
  C      2.723057   -3.578159   -0.777698
  O      2.342215   -2.301609   -0.227268
  C      2.369285   -1.247652   -1.015718
  O      2.705001   -1.260325   -2.179003
  C      1.917361    0.005881   -0.288460
  C      0.780017    0.649395   -1.076995
  H      1.103170    0.796182   -2.113552
  C      0.338413    1.986298   -0.510572
  O     -0.829877    2.252890   -0.310166
  O      1.347462    2.787022   -0.313273
  C      1.102146    4.080317    0.282946
  C      1.305683    4.007906    1.786973
  S     -0.675761   -0.438347   -1.194644
  P     -1.635188   -0.057800    0.673805
  S     -0.580095    0.535733    2.212106
  O     -2.963233    0.766312    0.456738
  C     -3.909671    0.462809   -0.585027
  O     -2.280181   -1.511644    0.920032
  C     -1.459570   -2.632816    1.254300
  H      1.051603   -3.708255   -2.126341
  H      1.831443   -5.253853   -1.763720
  H      0.783828   -4.490727   -0.559547
  H      3.470900   -3.408849   -1.557419
  H      3.160186   -4.121961    0.059775
  H      2.750678    0.709836   -0.249005
  H      1.606390   -0.246704    0.726221
  H      1.828906    4.742109   -0.188608
  H      0.082834    4.390414    0.039052
  H      0.613780    3.291393    2.226747
  H      2.320027    3.694906    2.015938
  H      1.124211    4.985358    2.220977
  H     -3.435077    0.574911   -1.559782
  H     -4.706318    1.191709   -0.461419
  H     -4.285730   -0.551504   -0.463020
  H     -0.837171   -2.903390    0.401026
  H     -2.147234   -3.437746    1.499799
  H     -0.827929   -2.392890    2.111379

 Total Charge           Charge          ....    0
 Multiplicity           Mult            ....    1
 Number of Electrons    NEL             ....  174
 Basis Dimension        Dim             ....  316

ORBITAL ENERGIES
----------------

  NO   OCC          E(Eh)            E(eV)
   0   2.0000     -88.040217     -2395.6961
   1   2.0000     -87.979109     -2394.0333
   2   2.0000     -76.423573     -2079.5911
   3   2.0000     -18.817497      -512.0501
   4   2.0000     -18.805177      -511.7149
   5   2.0000     -18.785151      -511.1699
   6   2.0000     -18.784205      -511.1442
   7   2.0000     -18.746833      -510.1273
   8   2.0000     -18.741270      -509.9759
   9   2.0000     -10.023406      -272.7507
  10   2.0000     -10.010884      -272.4100
  11   2.0000      -9.952753      -270.8282
  12   2.0000      -9.951266      -270.7877
  13   2.0000      -9.950054      -270.7547
  14   2.0000      -9.943668      -270.5810
  15   2.0000      -9.938359      -270.4365
  16   2.0000      -9.904962      -269.5277
  17   2.0000      -9.890630      -269.1377
  18   2.0000      -9.883973      -268.9566
  19   2.0000      -7.684642      -209.1097
  20   2.0000      -7.624243      -207.4662
  21   2.0000      -6.419732      -174.6898
  22   2.0000      -5.712566      -155.4468
  23   2.0000      -5.709137      -155.3535
  24   2.0000      -5.701650      -155.1498
  25   2.0000      -5.653361      -153.8358
  26   2.0000      -5.644908      -153.6058
  27   2.0000      -5.644044      -153.5822
  28   2.0000      -4.642502      -126.3289
  29   2.0000      -4.641767      -126.3089
  30   2.0000      -4.640097      -126.2634
  31   2.0000      -1.025802       -27.9135
  32   2.0000      -1.012872       -27.5616
  33   2.0000      -0.979806       -26.6619
  34   2.0000      -0.935192       -25.4479
  35   2.0000      -0.928357       -25.2619
  36   2.0000      -0.918355       -24.9897
  37   2.0000      -0.765922       -20.8418
  38   2.0000      -0.712551       -19.3895
  39   2.0000      -0.709443       -19.3049
  40   2.0000      -0.689875       -18.7725
  41   2.0000      -0.656851       -17.8738
  42   2.0000      -0.629814       -17.1381
  43   2.0000      -0.625242       -17.0137
  44   2.0000      -0.617312       -16.7979
  45   2.0000      -0.596239       -16.2245
  46   2.0000      -0.565887       -15.3986
  47   2.0000      -0.513220       -13.9654
  48   2.0000      -0.504524       -13.7288
  49   2.0000      -0.499041       -13.5796
  50   2.0000      -0.486848       -13.2478
  51   2.0000      -0.468820       -12.7572
  52   2.0000      -0.459181       -12.4950
  53   2.0000      -0.447344       -12.1728
  54   2.0000      -0.433784       -11.8039
  55   2.0000      -0.431729       -11.7479
  56   2.0000      -0.425475       -11.5778
  57   2.0000      -0.419085       -11.4039
  58   2.0000      -0.416751       -11.3404
  59   2.0000      -0.409338       -11.1386
  60   2.0000      -0.400018       -10.8850
  61   2.0000      -0.395992       -10.7755
  62   2.0000      -0.394077       -10.7234
  63   2.0000      -0.388796       -10.5797
  64   2.0000      -0.384556       -10.4643
  65   2.0000      -0.364141        -9.9088
  66   2.0000      -0.362375        -9.8607
  67   2.0000      -0.351871        -9.5749
  68   2.0000      -0.350241        -9.5305
  69   2.0000      -0.336691        -9.1618
  70   2.0000      -0.334030        -9.0894
  71   2.0000      -0.331169        -9.0116
  72   2.0000      -0.328177        -8.9302
  73   2.0000      -0.311022        -8.4634
  74   2.0000      -0.302435        -8.2297
  75   2.0000      -0.297162        -8.0862
  76   2.0000      -0.295467        -8.0401
  77   2.0000      -0.289507        -7.8779
  78   2.0000      -0.271451        -7.3865
  79   2.0000      -0.264716        -7.2033
  80   2.0000      -0.262772        -7.1504
  81   2.0000      -0.254486        -6.9249
  82   2.0000      -0.239895        -6.5279
  83   2.0000      -0.227335        -6.1861
  84   2.0000      -0.221707        -6.0330
  85   2.0000      -0.197389        -5.3712
  86   2.0000      -0.193316        -5.2604
  87   0.0000      -0.044893        -1.2216
  88   0.0000      -0.033500        -0.9116
  89   0.0000      -0.016621        -0.4523
  90   0.0000       0.002100         0.0571
  91   0.0000       0.023845         0.6488

MULLIKEN ATOMIC CHARGES
-----------------------
   0 C :   -0.310891
   1 C :   -0.020404
   2 O :   -0.218534
   3 C :    0.121258
   4 O :   -0.208382
   5 C :   -0.074623
   6 C :   -0.317882
   7 H :    0.161678
   8 C :    0.210531
   9 O :   -0.184016
  10 O :   -0.221842
  11 C :   -0.014781
  12 C :   -0.309483
  13 S :   -0.097554
  14 P :    0.618117
  15 S :   -0.317758
  16 O :   -0.352306
  17 C :   -0.102851
  18 O :   -0.392432
  19 C :   -0.117449
  20 H :    0.128242
  21 H :    0.113651
  22 H :    0.126021
  23 H :    0.111021
  24 H :    0.105560
  25 H :    0.123107
  26 H :    0.114533
  27 H :    0.106452
  28 H :    0.117288
  29 H :    0.145610
  30 H :    0.112409
  31 H :    0.112333
  32 H :    0.121962
  33 H :    0.130745
  34 H :    0.120684
  35 H :    0.122801
  36 H :    0.120594
  37 H :    0.116592
Sum of atomic charges:    0.0000000

LOEWDIN ATOMIC CHARGES
----------------------
   0 C :   -0.355419
   1 C :   -0.111751
   2 O :   -0.052028
   3 C :    0.025699
   4 O :   -0.172747
   5 C :   -0.257971
   6 C :   -0.259192
   7 H :    0.156019
   8 C :    0.012588
   9 O :   -0.161145
  10 O :   -0.038086
  11 C :   -0.106087
  12 C :   -0.357818
  13 S :    0.102309
  14 P :    0.590001
  15 S :   -0.306470
  16 O :   -0.229459
  17 C :   -0.207939
  18 O :   -0.265589
  19 C :   -0.223345
  20 H :    0.131696
  21 H :    0.131351
  22 H :    0.122499
  23 H :    0.121034
  24 H :    0.118815
  25 H :    0.147823
  26 H :    0.127934
  27 H :    0.119165
  28 H :    0.124051
  29 H :    0.131512
  30 H :    0.124664
  31 H :    0.131043
  32 H :    0.112100
  33 H :    0.126426
  34 H :    0.113809
  35 H :    0.103946
  36 H :    0.120280
  37 H :    0.110283

  Mayer bond orders larger than 0.100000
B(  0-C ,  1-C ) :   1.1773 B(  0-C , 20-H ) :   0.9458 B(  0-C , 21-H ) :   0.9418
B(  0-C , 22-H ) :   0.9382 B(  1-C ,  2-O ) :   0.9155 B(  1-C , 23-H ) :   0.9107
B(  1-C , 24-H ) :   0.9363 B(  2-O ,  3-C ) :   1.2467 B(  3-C ,  4-O ) :   2.0362
B(  3-C ,  5-C ) :   0.9990 B(  5-C ,  6-C ) :   1.0681 B(  5-C , 25-H ) :   0.8658
B(  5-C , 26-H ) :   0.8822 B(  6-C ,  7-H ) :   0.8490 B(  6-C ,  8-C ) :   0.9087
B(  6-C , 13-S ) :   1.0185 B(  8-C ,  9-O ) :   2.0048 B(  8-C , 10-O ) :   1.2732
B( 10-O , 11-C ) :   0.8953 B( 11-C , 12-C ) :   1.1806 B( 11-C , 27-H ) :   0.9365
B( 11-C , 28-H ) :   0.9100 B( 12-C , 29-H ) :   0.9310 B( 12-C , 30-H ) :   0.9493
B( 12-C , 31-H ) :   0.9415 B( 13-S , 14-P ) :   0.9373 B( 13-S , 15-S ) :   0.1126
B( 14-P , 15-S ) :   1.5975 B( 14-P , 16-O ) :   1.1410 B( 14-P , 18-O ) :   1.0529
B( 16-O , 17-C ) :   0.9210 B( 17-C , 32-H ) :   0.9409 B( 17-C , 33-H ) :   0.9597
B( 17-C , 34-H ) :   0.9462 B( 18-O , 19-C ) :   0.9364 B( 19-C , 35-H ) :   0.9329
B( 19-C , 36-H ) :   0.9571 B( 19-C , 37-H ) :   0.9341

Dispersion correction           -0.052613894
FINAL SINGLE POINT ENERGY     -1979.019800860317

DIPOLE MOMENT
-------------

Method             : SCF
Type of density    : Electron Density
Multiplicity       :   1
Irrep              :   0
Energy             : -1979.1491184698174948 Eh
Relativity type    :
Basis              : AO
                                X                 Y                 Z
Electronic contribution:     -6.458010191       5.305888695       0.026387263
Nuclear contribution   :      6.651314810      -5.699813964      -0.413464714
                        -----------------------------------------
Total Dipole Moment    :      0.193304619      -0.393925269      -0.387077451
                        -----------------------------------------
Magnitude (a.u.)       :      0.585126266
Magnitude (Debye)      :      1.487272773

Rotational constants in cm-1:             0.011450             0.008287             0.006008
Rotational constants in MHz :           343.266090           248.445457           180.119956

                             ****ORCA TERMINATED NORMALLY****
TOTAL RUN TIME: 0 days 0 hours 0 minutes 51 seconds 150 msec
