                         Program Version 6.0.1  -  RELEASE   -
|  1> ! r2scan-3c def2/J RI DEFGRID2 scfconv6 printgap
|  2> %output
|  3>     printlevel normal
|  4> end
|  5> * xyz 0 1
|  6> C 5.2221747644 -1.8388285834 -1.6434905731
|  7> C 4.5045699636 -0.5953104708 -1.1429339061
|  8> O 3.075173354 -0.7553947339 -1.2163179375
|  9> C 2.4642157994 -1.360262646 -0.2119649913
| 10> O 3.0239354583 -1.7934094089 0.7679812442
| 11> C 0.969502199 -1.4781544055 -0.4499511205
| 12> C 0.3881961655 -0.1843676646 -1.0082341515
| 13> H 0.9076032433 0.0833055162 -1.9344201305
| 14> C 0.5049326505 0.9914572097 -0.0570281175
| 15> O -0.3610180281 1.8375786654 0.0437024897
| 16> O 1.6390046529 0.98867658 0.5930891362
| 17> C 1.885837074 2.0502205725 1.5390474794
| 18> C 2.4497851992 3.2795749627 0.8470744387
| 19> S -1.3605802585 -0.3534918487 -1.4894967544
| 20> P -2.3440804922 0.0274913956 0.3547293188
| 21> S -1.3942074217 -0.3700731603 2.0229033067
| 22> O -3.0252463925 1.4502511402 0.3476402788
| 23> C -3.7406847622 1.9668695709 -0.7917018547
| 24> O -3.6537242025 -0.8804541861 0.1552232273
| 25> C -3.5834004056 -2.3093857004 0.1690504237
| 26> H 6.2925049084 -1.6611924869 -1.6395814494
| 27> H 5.0025256218 -2.6826304834 -0.9935402161
| 28> H 4.9014765684 -2.0756058821 -2.6541739207
| 29> H 4.7146241118 0.2663111506 -1.7769432455
| 30> H 4.7770450014 -0.3828083788 -0.1054435131
| 31> H 0.4973471042 -1.7469366168 0.4972986561
| 32> H 0.8034888432 -2.2803801305 -1.1717084338
| 33> H 0.9455150898 2.2794718294 2.0491191021
| 34> H 2.5975052671 1.6172063592 2.242387486
| 35> H 3.353870457 3.0217558271 0.3024285323
| 36> H 1.7178619743 3.6882019354 0.154149561
| 37> H 2.683682033 4.0299039974 1.5949233283
| 38> H -4.5185563613 1.2679888139 -1.0940764901
| 39> H -3.0442338563 2.1401411371 -1.6117420582
| 40> H -4.1706846153 2.9049847853 -0.4509236632
| 41> H -4.611444571 -2.6522503786 0.252887959
| 42> H -2.9992146643 -2.6475225494 1.0265197267
| 43> H -3.1323519847 -2.666692479 -0.7563696385
| 44> *
| 45>
| 46>                          ****END OF INPUT****

CARTESIAN COORDINATES (ANGSTROEM)
---------------------------------
  C      5.222175   -1.838829   -1.643491
  C      4.504570   -0.595310   -1.142934
  O      3.075173   -0.755395   -1.216318
  C      2.464216   -1.360263   -0.211965
  O      3.023935   -1.793409    0.767981
  C      0.969502   -1.478154   -0.449951
  C      0.388196   -0.184368   -1.008234
  H      0.907603    0.083306   -1.934420
  C      0.504933    0.991457   -0.057028
  O     -0.361018    1.837579    0.043702
  O      1.639005    0.988677    0.593089
  C      1.885837    2.050221    1.539047
  C      2.449785    3.279575    0.847074
  S     -1.360580   -0.353492   -1.489497
  P     -2.344080    0.027491    0.354729
  S     -1.394207   -0.370073    2.022903
  O     -3.025246    1.450251    0.347640
  C     -3.740685    1.966870   -0.791702
  O     -3.653724   -0.880454    0.155223
  C     -3.583400   -2.309386    0.169050
  H      6.292505   -1.661192   -1.639581
  H      5.002526   -2.682630   -0.993540
  H      4.901477   -2.075606   -2.654174
  H      4.714624    0.266311   -1.776943
  H      4.777045   -0.382808   -0.105444
  H      0.497347   -1.746937    0.497299
  H      0.803489   -2.280380   -1.171708
  H      0.945515    2.279472    2.049119
  H      2.597505    1.617206    2.242387
  H      3.353870    3.021756    0.302429
  H      1.717862    3.688202    0.154150
  H      2.683682    4.029904    1.594923
  H     -4.518556    1.267989   -1.094076
  H     -3.044234    2.140141   -1.611742
  H     -4.170685    2.904985   -0.450924
  H     -4.611445   -2.652250    0.252888
  H     -2.999215   -2.647523    1.026520
  H     -3.132352   -2.666692   -0.756370

 Total Charge           Charge          ....    0
 Multiplicity           Mult            ....    1
 Number of Electrons    NEL             ....  174
 Basis Dimension        Dim             ....  510

ORBITAL ENERGIES
----------------

  NO   OCC          E(Eh)            E(eV)
   0   2.0000     -88.575057     -2410.2498
   1   2.0000     -88.512478     -2408.5470
   2   2.0000     -76.910776     -2092.8486
   3   2.0000     -19.011978      -517.3422
   4   2.0000     -19.002100      -517.0734
   5   2.0000     -18.984998      -516.6081
   6   2.0000     -18.984592      -516.5970
   7   2.0000     -18.938423      -515.3407
   8   2.0000     -18.930007      -515.1117
   9   2.0000     -10.169497      -276.7261
  10   2.0000     -10.158088      -276.4156
  11   2.0000     -10.100656      -274.8528
  12   2.0000     -10.097104      -274.7562
  13   2.0000     -10.096309      -274.7345
  14   2.0000     -10.090526      -274.5772
  15   2.0000     -10.086643      -274.4715
  16   2.0000     -10.053901      -273.5805
  17   2.0000     -10.033394      -273.0225
  18   2.0000     -10.032460      -272.9971
  19   2.0000      -7.869445      -214.1385
  20   2.0000      -7.807359      -212.4490
  21   2.0000      -6.588612      -179.2853
  22   2.0000      -5.816470      -158.2742
  23   2.0000      -5.813199      -158.1852
  24   2.0000      -5.806498      -158.0028
  25   2.0000      -5.755289      -156.6094
  26   2.0000      -5.747659      -156.4018
  27   2.0000      -5.747038      -156.3849
  28   2.0000      -4.734289      -128.8265
  29   2.0000      -4.733801      -128.8133
  30   2.0000      -4.732093      -128.7668
  31   2.0000      -1.090656       -29.6782
  32   2.0000      -1.077359       -29.3164
  33   2.0000      -1.043589       -28.3975
  34   2.0000      -1.001375       -27.2488
  35   2.0000      -0.991371       -26.9766
  36   2.0000      -0.980551       -26.6821
  37   2.0000      -0.813143       -22.1267
  38   2.0000      -0.752659       -20.4809
  39   2.0000      -0.749542       -20.3961
  40   2.0000      -0.726869       -19.7791
  41   2.0000      -0.696939       -18.9647
  42   2.0000      -0.669834       -18.2271
  43   2.0000      -0.660441       -17.9715
  44   2.0000      -0.650421       -17.6989
  45   2.0000      -0.629187       -17.1211
  46   2.0000      -0.604070       -16.4376
  47   2.0000      -0.540004       -14.6943
  48   2.0000      -0.531197       -14.4546
  49   2.0000      -0.526351       -14.3227
  50   2.0000      -0.504418       -13.7259
  51   2.0000      -0.487868       -13.2756
  52   2.0000      -0.484648       -13.1879
  53   2.0000      -0.467965       -12.7340
  54   2.0000      -0.452991       -12.3265
  55   2.0000      -0.448050       -12.1921
  56   2.0000      -0.445644       -12.1266
  57   2.0000      -0.439876       -11.9696
  58   2.0000      -0.437881       -11.9153
  59   2.0000      -0.427518       -11.6334
  60   2.0000      -0.420352       -11.4384
  61   2.0000      -0.414778       -11.2867
  62   2.0000      -0.412120       -11.2143
  63   2.0000      -0.404607       -11.0099
  64   2.0000      -0.398240       -10.8367
  65   2.0000      -0.385370       -10.4864
  66   2.0000      -0.373984       -10.1766
  67   2.0000      -0.369692       -10.0598
  68   2.0000      -0.363479        -9.8908
  69   2.0000      -0.355291        -9.6680
  70   2.0000      -0.352261        -9.5855
  71   2.0000      -0.343414        -9.3448
  72   2.0000      -0.335562        -9.1311
  73   2.0000      -0.330766        -9.0006
  74   2.0000      -0.317298        -8.6341
  75   2.0000      -0.314561        -8.5596
  76   2.0000      -0.311597        -8.4790
  77   2.0000      -0.308286        -8.3889
  78   2.0000      -0.287992        -7.8367
  79   2.0000      -0.281479        -7.6594
  80   2.0000      -0.273724        -7.4484
  81   2.0000      -0.272230        -7.4077
  82   2.0000      -0.254986        -6.9385
  83   2.0000      -0.243318        -6.6210
  84   2.0000      -0.230534        -6.2731
  85   2.0000      -0.210013        -5.7147
  86   2.0000      -0.208579        -5.6757
  87   0.0000      -0.045503        -1.2382
  88   0.0000      -0.029673        -0.8075
  89   0.0000      -0.011063        -0.3010
  90   0.0000       0.005036         0.1370
  91   0.0000       0.022122         0.6020

MULLIKEN ATOMIC CHARGES
-----------------------
   0 C :   -0.468862
   1 C :   -0.135117
   2 O :   -0.142407
   3 C :    0.333531
   4 O :   -0.390107
   5 C :   -0.497427
   6 C :    0.061610
   7 H :    0.209217
   8 C :    0.234247
   9 O :   -0.388768
  10 O :   -0.091831
  11 C :   -0.143650
  12 C :   -0.472104
  13 S :   -0.182625
  14 P :    0.761230
  15 S :   -0.443909
  16 O :   -0.293831
  17 C :   -0.298167
  18 O :   -0.357006
  19 C :   -0.299314
  20 H :    0.148067
  21 H :    0.177419
  22 H :    0.151173
  23 H :    0.148156
  24 H :    0.168412
  25 H :    0.227942
  26 H :    0.187801
  27 H :    0.182355
  28 H :    0.163095
  29 H :    0.148859
  30 H :    0.176178
  31 H :    0.152540
  32 H :    0.164802
  33 H :    0.171822
  34 H :    0.155317
  35 H :    0.151298
  36 H :    0.175472
  37 H :    0.154585
Sum of atomic charges:    0.0000000

LOEWDIN ATOMIC CHARGES
----------------------
   0 C :   -0.389420
   1 C :    0.029288
   2 O :   -0.601987
   3 C :    0.353841
   4 O :   -0.412721
   5 C :   -0.211059
   6 C :   -0.199082
   7 H :    0.213011
   8 C :    0.347467
   9 O :   -0.456819
  10 O :   -0.566521
  11 C :    0.039647
  12 C :   -0.388049
  13 S :    0.199600
  14 P :    0.409341
  15 S :   -0.074773
  16 O :   -0.638220
  17 C :   -0.050849
  18 O :   -0.689482
  19 C :   -0.064250
  20 H :    0.159631
  21 H :    0.167328
  22 H :    0.157012
  23 H :    0.177568
  24 H :    0.188734
  25 H :    0.202691
  26 H :    0.186357
  27 H :    0.196152
  28 H :    0.184313
  29 H :    0.155990
  30 H :    0.166258
  31 H :    0.161606
  32 H :    0.171449
  33 H :    0.174868
  34 H :    0.180947
  35 H :    0.176638
  36 H :    0.176437
  37 H :    0.167057

  Mayer bond orders larger than 0.100000
B(  0-C ,  1-C ) :   0.9355 B(  0-C , 20-H ) :   0.9650 B(  0-C , 21-H ) :   0.9708
B(  0-C , 22-H ) :   0.9735 B(  1-C ,  2-O ) :   0.8043 B(  1-C , 23-H ) :   0.9622
B(  1-C , 24-H ) :   0.9696 B(  2-O ,  3-C ) :   1.0736 B(  2-O ,  6-C ) :   0.1218
B(  3-C ,  4-O ) :   1.9088 B(  3-C ,  5-C ) :   0.8826 B(  5-C ,  6-C ) :   0.8394
B(  5-C , 25-H ) :   0.9849 B(  5-C , 26-H ) :   0.9483 B(  6-C ,  7-H ) :   0.8921
B(  6-C ,  8-C ) :   0.9867 B(  6-C , 13-S ) :   0.8285 B(  8-C ,  9-O ) :   1.7920
B(  8-C , 10-O ) :   1.1505 B( 10-O , 11-C ) :   0.7699 B( 11-C , 12-C ) :   0.9182
B( 11-C , 27-H ) :   0.9626 B( 11-C , 28-H ) :   0.9631 B( 12-C , 29-H ) :   0.9740
B( 12-C , 30-H ) :   0.9729 B( 12-C , 31-H ) :   0.9644 B( 13-S , 14-P ) :   1.0042
B( 14-P , 15-S ) :   1.7707 B( 14-P , 16-O ) :   1.1984 B( 14-P , 18-O ) :   1.0075
B( 16-O , 17-C ) :   0.7962 B( 17-C , 32-H ) :   0.9640 B( 17-C , 33-H ) :   0.9574
B( 17-C , 34-H ) :   0.9647 B( 18-O , 19-C ) :   0.8357 B( 19-C , 35-H ) :   0.9689
B( 19-C , 36-H ) :   0.9586 B( 19-C , 37-H ) :   0.9565

Dispersion correction           -0.017570494
FINAL SINGLE POINT ENERGY     -1981.448615828209

DIPOLE MOMENT
-------------

Method             : SCF
Type of density    : Electron Density
Multiplicity       :   1
Irrep              :   0
Energy             : -1981.4686446135028746 Eh
Relativity type    :
Basis              : AO
                                X                 Y                 Z
Electronic contribution:    -17.313425891      -1.958363814       4.421642642
Nuclear contribution   :     17.869415371       2.357409653      -6.016113282
                        -----------------------------------------
Total Dipole Moment    :      0.555989480       0.399045839      -1.594470640
                        -----------------------------------------
Magnitude (a.u.)       :      1.735136452
Magnitude (Debye)      :      4.410366363

Rotational constants in cm-1:             0.016117             0.006211             0.005456
Rotational constants in MHz :           483.169244           186.198915           163.567851

                             ****ORCA TERMINATED NORMALLY****
TOTAL RUN TIME: 0 days 0 hours 1 minutes 17 seconds 838 msec
