                         Program Version 6.0.1  -  RELEASE   -
|  1> ! r2scan-3c def2/J RI DEFGRID2 scfconv6 printgap
|  2> %output
|  3>     printlevel normal
|  4> end
|  5> %cpcm
|  6>     smd true
|  7>     smdsolvent "water"
|  8> end
|  9> * xyz 0 1
| 10> C 5.2221747644 -1.8388285834 -1.6434905731
| 11> C 4.5045699636 -0.5953104708 -1.1429339061
| 12> O 3.075173354 -0.7553947339 -1.2163179375
| 13> C 2.4642157994 -1.360262646 -0.2119649913
| 14> O 3.0239354583 -1.7934094089 0.7679812442
| 15> C 0.969502199 -1.4781544055 -0.4499511205
| 16> C 0.3881961655 -0.1843676646 -1.0082341515
| 17> H 0.9076032433 0.0833055162 -1.9344201305
| 18> C 0.5049326505 0.9914572097 -0.0570281175
| 19> O -0.3610180281 1.8375786654 0.0437024897
| 20> O 1.6390046529 0.98867658 0.5930891362
| 21> C 1.885837074 2.0502205725 1.5390474794
| 22> C 2.4497851992 3.2795749627 0.8470744387
| 23> S -1.3605802585 -0.3534918487 -1.4894967544
| 24> P -2.3440804922 0.0274913956 0.3547293188
| 25> S -1.3942074217 -0.3700731603 2.0229033067
| 26> O -3.0252463925 1.4502511402 0.3476402788
| 27> C -3.7406847622 1.9668695709 -0.7917018547
| 28> O -3.6537242025 -0.8804541861 0.1552232273
| 29> C -3.5834004056 -2.3093857004 0.1690504237
| 30> H 6.2925049084 -1.6611924869 -1.6395814494
| 31> H 5.0025256218 -2.6826304834 -0.9935402161
| 32> H 4.9014765684 -2.0756058821 -2.6541739207
| 33> H 4.7146241118 0.2663111506 -1.7769432455
| 34> H 4.7770450014 -0.3828083788 -0.1054435131
| 35> H 0.4973471042 -1.7469366168 0.4972986561
| 36> H 0.8034888432 -2.2803801305 -1.1717084338
| 37> H 0.9455150898 2.2794718294 2.0491191021
| 38> H 2.5975052671 1.6172063592 2.242387486
| 39> H 3.353870457 3.0217558271 0.3024285323
| 40> H 1.7178619743 3.6882019354 0.154149561
| 41> H 2.683682033 4.0299039974 1.5949233283
| 42> H -4.5185563613 1.2679888139 -1.0940764901
| 43> H -3.0442338563 2.1401411371 -1.6117420582
| 44> H -4.1706846153 2.9049847853 -0.4509236632
| 45> H -4.611444571 -2.6522503786 0.252887959
| 46> H -2.9992146643 -2.6475225494 1.0265197267
| 47> H -3.1323519847 -2.666692479 -0.7563696385
| 48> *
| 49>
| 50>                          ****END OF INPUT****

CARTESIAN COORDINATES (ANGSTROEM)
---------------------------------
  C      5.222175   -1.838829   -1.643491
  C      4.504570   -0.595310   -1.142934
  O      3.075173   -0.755395   -1.216318
  C      2.464216   -1.360263   -0.211965
  O      3.023935   -1.793409    0.767981
  C      0.969502   -1.478154   -0.449951
  C      0.388196   -0.184368   -1.008234
  H      0.907603    0.083306   -1.934420
  C      0.504933    0.991457   -0.057028
  O     -0.361018    1.837579    0.043702
  O      1.639005    0.988677    0.593089
  C      1.885837    2.050221    1.539047
  C      2.449785    3.279575    0.847074
  S     -1.360580   -0.353492   -1.489497
  P     -2.344080    0.027491    0.354729
  S     -1.394207   -0.370073    2.022903
  O     -3.025246    1.450251    0.347640
  C     -3.740685    1.966870   -0.791702
  O     -3.653724   -0.880454    0.155223
  C     -3.583400   -2.309386    0.169050
  H      6.292505   -1.661192   -1.639581
  H      5.002526   -2.682630   -0.993540
  H      4.901477   -2.075606   -2.654174
  H      4.714624    0.266311   -1.776943
  H      4.777045   -0.382808   -0.105444
  H      0.497347   -1.746937    0.497299
  H      0.803489   -2.280380   -1.171708
  H      0.945515    2.279472    2.049119
  H      2.597505    1.617206    2.242387
  H      3.353870    3.021756    0.302429
  H      1.717862    3.688202    0.154150
  H      2.683682    4.029904    1.594923
  H     -4.518556    1.267989   -1.094076
  H     -3.044234    2.140141   -1.611742
  H     -4.170685    2.904985   -0.450924
  H     -4.611445   -2.652250    0.252888
  H     -2.999215   -2.647523    1.026520
  H     -3.132352   -2.666692   -0.756370

 Total Charge           Charge          ....    0
 Multiplicity           Mult            ....    1
 Number of Electrons    NEL             ....  174
 Basis Dimension        Dim             ....  510

ORBITAL ENERGIES
----------------

  NO   OCC          E(Eh)            E(eV)
   0   2.0000     -88.580364     -2410.3942
   1   2.0000     -88.527451     -2408.9544
   2   2.0000     -76.921599     -2093.1431
   3   2.0000     -19.017059      -517.4805
   4   2.0000     -19.005387      -517.1629
   5   2.0000     -18.995962      -516.9064
   6   2.0000     -18.991372      -516.7815
   7   2.0000     -18.950865      -515.6793
   8   2.0000     -18.946675      -515.5652
   9   2.0000     -10.178894      -276.9818
  10   2.0000     -10.170110      -276.7428
  11   2.0000     -10.100628      -274.8521
  12   2.0000     -10.089857      -274.5590
  13   2.0000     -10.085540      -274.4415
  14   2.0000     -10.084535      -274.4142
  15   2.0000     -10.080126      -274.2942
  16   2.0000     -10.054234      -273.5896
  17   2.0000     -10.020631      -272.6752
  18   2.0000     -10.018843      -272.6266
  19   2.0000      -7.874624      -214.2794
  20   2.0000      -7.822681      -212.8660
  21   2.0000      -6.599571      -179.5835
  22   2.0000      -5.821695      -158.4164
  23   2.0000      -5.818416      -158.3271
  24   2.0000      -5.811611      -158.1420
  25   2.0000      -5.770478      -157.0227
  26   2.0000      -5.763026      -156.8199
  27   2.0000      -5.762381      -156.8024
  28   2.0000      -4.745224      -129.1241
  29   2.0000      -4.744672      -129.1091
  30   2.0000      -4.743175      -129.0683
  31   2.0000      -1.096937       -29.8492
  32   2.0000      -1.083502       -29.4836
  33   2.0000      -1.052555       -28.6415
  34   2.0000      -1.009309       -27.4647
  35   2.0000      -1.002224       -27.2719
  36   2.0000      -0.994427       -27.0597
  37   2.0000      -0.814841       -22.1729
  38   2.0000      -0.749493       -20.3947
  39   2.0000      -0.744738       -20.2653
  40   2.0000      -0.727975       -19.8092
  41   2.0000      -0.697410       -18.9775
  42   2.0000      -0.668266       -18.1844
  43   2.0000      -0.661853       -18.0099
  44   2.0000      -0.653989       -17.7959
  45   2.0000      -0.623548       -16.9676
  46   2.0000      -0.602543       -16.3960
  47   2.0000      -0.540779       -14.7153
  48   2.0000      -0.528668       -14.3858
  49   2.0000      -0.525519       -14.3001
  50   2.0000      -0.506476       -13.7819
  51   2.0000      -0.491160       -13.3651
  52   2.0000      -0.485480       -13.2106
  53   2.0000      -0.477046       -12.9811
  54   2.0000      -0.457274       -12.4431
  55   2.0000      -0.455155       -12.3854
  56   2.0000      -0.448617       -12.2075
  57   2.0000      -0.441853       -12.0234
  58   2.0000      -0.440784       -11.9944
  59   2.0000      -0.427126       -11.6227
  60   2.0000      -0.421869       -11.4796
  61   2.0000      -0.411942       -11.2095
  62   2.0000      -0.410174       -11.1614
  63   2.0000      -0.405644       -11.0381
  64   2.0000      -0.395174       -10.7532
  65   2.0000      -0.382348       -10.4042
  66   2.0000      -0.369043       -10.0422
  67   2.0000      -0.366710        -9.9787
  68   2.0000      -0.363996        -9.9048
  69   2.0000      -0.352049        -9.5797
  70   2.0000      -0.350210        -9.5297
  71   2.0000      -0.340621        -9.2688
  72   2.0000      -0.336653        -9.1608
  73   2.0000      -0.332459        -9.0467
  74   2.0000      -0.318979        -8.6799
  75   2.0000      -0.315722        -8.5912
  76   2.0000      -0.310075        -8.4376
  77   2.0000      -0.307486        -8.3671
  78   2.0000      -0.293080        -7.9751
  79   2.0000      -0.288125        -7.8403
  80   2.0000      -0.279982        -7.6187
  81   2.0000      -0.277770        -7.5585
  82   2.0000      -0.265164        -7.2155
  83   2.0000      -0.258104        -7.0234
  84   2.0000      -0.242297        -6.5932
  85   2.0000      -0.225082        -6.1248
  86   2.0000      -0.223413        -6.0794
  87   0.0000      -0.052695        -1.4339
  88   0.0000      -0.038000        -1.0340
  89   0.0000      -0.020186        -0.5493
  90   0.0000       0.000295         0.0080
  91   0.0000       0.013515         0.3678

MULLIKEN ATOMIC CHARGES
-----------------------
   0 C :   -0.493680
   1 C :   -0.137774
   2 O :   -0.159112
   3 C :    0.371984
   4 O :   -0.474258
   5 C :   -0.510460
   6 C :    0.072433
   7 H :    0.250720
   8 C :    0.253538
   9 O :   -0.440476
  10 O :   -0.110911
  11 C :   -0.136501
  12 C :   -0.498470
  13 S :   -0.177856
  14 P :    0.766257
  15 S :   -0.496247
  16 O :   -0.343263
  17 C :   -0.303507
  18 O :   -0.387148
  19 C :   -0.305760
  20 H :    0.171550
  21 H :    0.170575
  22 H :    0.166647
  23 H :    0.176771
  24 H :    0.174035
  25 H :    0.221371
  26 H :    0.225680
  27 H :    0.176280
  28 H :    0.183670
  29 H :    0.168008
  30 H :    0.174040
  31 H :    0.175017
  32 H :    0.185153
  33 H :    0.181189
  34 H :    0.181927
  35 H :    0.178807
  36 H :    0.176076
  37 H :    0.173695
Sum of atomic charges:    0.0000000

LOEWDIN ATOMIC CHARGES
----------------------
   0 C :   -0.391832
   1 C :    0.035877
   2 O :   -0.595146
   3 C :    0.362080
   4 O :   -0.472570
   5 C :   -0.206998
   6 C :   -0.191719
   7 H :    0.230082
   8 C :    0.354477
   9 O :   -0.497707
  10 O :   -0.569694
  11 C :    0.043521
  12 C :   -0.388522
  13 S :    0.216223
  14 P :    0.406639
  15 S :   -0.115804
  16 O :   -0.670293
  17 C :   -0.044063
  18 O :   -0.702024
  19 C :   -0.058521
  20 H :    0.168307
  21 H :    0.163263
  22 H :    0.162508
  23 H :    0.190362
  24 H :    0.190708
  25 H :    0.198462
  26 H :    0.203550
  27 H :    0.193749
  28 H :    0.193236
  29 H :    0.163471
  30 H :    0.164617
  31 H :    0.169970
  32 H :    0.181112
  33 H :    0.180002
  34 H :    0.191940
  35 H :    0.188253
  36 H :    0.177031
  37 H :    0.175453

  Mayer bond orders larger than 0.100000
B(  0-C ,  1-C ) :   0.9332 B(  0-C , 20-H ) :   0.9599 B(  0-C , 21-H ) :   0.9688
B(  0-C , 22-H ) :   0.9696 B(  1-C ,  2-O ) :   0.7874 B(  1-C , 23-H ) :   0.9515
B(  1-C , 24-H ) :   0.9641 B(  2-O ,  3-C ) :   1.1043 B(  2-O ,  6-C ) :   0.1099
B(  3-C ,  4-O ) :   1.8372 B(  3-C ,  5-C ) :   0.9011 B(  5-C ,  6-C ) :   0.8252
B(  5-C , 25-H ) :   0.9919 B(  5-C , 26-H ) :   0.9208 B(  6-C ,  7-H ) :   0.8773
B(  6-C ,  8-C ) :   0.9922 B(  6-C , 13-S ) :   0.8076 B(  8-C ,  9-O ) :   1.7573
B(  8-C , 10-O ) :   1.1630 B( 10-O , 11-C ) :   0.7541 B( 11-C , 12-C ) :   0.9237
B( 11-C , 27-H ) :   0.9552 B( 11-C , 28-H ) :   0.9527 B( 12-C , 29-H ) :   0.9693
B( 12-C , 30-H ) :   0.9700 B( 12-C , 31-H ) :   0.9586 B( 13-S , 14-P ) :   1.0302
B( 14-P , 15-S ) :   1.7603 B( 14-P , 16-O ) :   1.1888 B( 14-P , 18-O ) :   1.0120
B( 16-O , 17-C ) :   0.7898 B( 17-C , 32-H ) :   0.9539 B( 17-C , 33-H ) :   0.9484
B( 17-C , 34-H ) :   0.9540 B( 18-O , 19-C ) :   0.8278 B( 19-C , 35-H ) :   0.9587
B( 19-C , 36-H ) :   0.9548 B( 19-C , 37-H ) :   0.9495

Dispersion correction           -0.017570494
FINAL SINGLE POINT ENERGY     -1981.464392108948

DIPOLE MOMENT
-------------

Method             : SCF
Type of density    : Electron Density
Multiplicity       :   1
Irrep              :   0
Energy             : -1981.4844208942422483 Eh
Relativity type    :
Basis              : AO
                                X                 Y                 Z
Electronic contribution:    -17.044536343      -2.032080133       3.443869986
Nuclear contribution   :     17.869415371       2.357409653      -6.016113282
                        -----------------------------------------
Total Dipole Moment    :      0.824879029       0.325329520      -2.572243296
                        -----------------------------------------
Magnitude (a.u.)       :      2.720790378
Magnitude (Debye)      :      6.915699542

Rotational constants in cm-1:             0.016117             0.006211             0.005456
Rotational constants in MHz :           483.169244           186.198915           163.567851

                             ****ORCA TERMINATED NORMALLY****
TOTAL RUN TIME: 0 days 0 hours 1 minutes 43 seconds 436 msec
