                         Program Version 6.0.0  -   RELEASE  -
|  1> ! r2scan-3c def2/J RI DEFGRID2 scfconv6 printgap
|  2> %output
|  3>     printlevel normal
|  4> end
|  5> * xyz 0 1
|  6> C -1.0478115052 -2.1832439872 -3.6793e-06
|  7> C -0.1917459498 -0.9576118993 3.0038e-06
|  8> C 1.193030122 -1.0499966052 -3.35552e-05
|  9> C 1.9965965006 0.0846803861 5.399e-07
| 10> C 1.4045953254 1.3450595678 4.892e-06
| 11> C 0.0288352975 1.4567658768 -4.33313e-05
| 12> C -0.7532439809 0.3151795789 3.47141e-05
| 13> Cl -2.4901655797 0.4917802478 7.1946e-06
| 14> O 3.3499571628 0.0150461529 1.91e-05
| 15> H -0.4382576929 -3.0812525919 0.0008779657
| 16> H -1.6924662328 -2.1893297974 0.8773763807
| 17> H -1.6912011485 -2.1902743104 -0.8783181048
| 18> H 1.6482168103 -2.029538283 4.6291e-05
| 19> H 2.0335009089 2.2198072549 6.78382e-05
| 20> H -0.4376768489 2.4286606318 -0.0001367011
| 21> H 3.6485566309 -0.9075768696 -2.4057e-05
| 22> *
| 23>
| 24>                          ****END OF INPUT****

CARTESIAN COORDINATES (ANGSTROEM)
---------------------------------
  C     -1.047812   -2.183244   -0.000004
  C     -0.191746   -0.957612    0.000003
  C      1.193030   -1.049997   -0.000034
  C      1.996597    0.084680    0.000001
  C      1.404595    1.345060    0.000005
  C      0.028835    1.456766   -0.000043
  C     -0.753244    0.315180    0.000035
  Cl    -2.490166    0.491780    0.000007
  O      3.349957    0.015046    0.000019
  H     -0.438258   -3.081253    0.000878
  H     -1.692466   -2.189330    0.877376
  H     -1.691201   -2.190274   -0.878318
  H      1.648217   -2.029538    0.000046
  H      2.033501    2.219807    0.000068
  H     -0.437677    2.428661   -0.000137
  H      3.648557   -0.907577   -0.000024

 Total Charge           Charge          ....    0
 Multiplicity           Mult            ....    1
 Number of Electrons    NEL             ....   74
 Basis Dimension        Dim             ....  219

ORBITAL ENERGIES
----------------

  NO   OCC          E(Eh)            E(eV)
   0   2.0000    -101.214296     -2754.1810
   1   2.0000     -18.993566      -516.8412
   2   2.0000     -10.105025      -274.9717
   3   2.0000     -10.089594      -274.5518
   4   2.0000     -10.060478      -273.7595
   5   2.0000     -10.047987      -273.4196
   6   2.0000     -10.043739      -273.3040
   7   2.0000     -10.039088      -273.1775
   8   2.0000     -10.035105      -273.0691
   9   2.0000      -9.370167      -254.9752
  10   2.0000      -7.116301      -193.6444
  11   2.0000      -7.106487      -193.3773
  12   2.0000      -7.106018      -193.3646
  13   2.0000      -1.038840       -28.2683
  14   2.0000      -0.861074       -23.4310
  15   2.0000      -0.800494       -21.7826
  16   2.0000      -0.755236       -20.5510
  17   2.0000      -0.701345       -19.0846
  18   2.0000      -0.667338       -18.1592
  19   2.0000      -0.600200       -16.3323
  20   2.0000      -0.565176       -15.3792
  21   2.0000      -0.521991       -14.2041
  22   2.0000      -0.474674       -12.9165
  23   2.0000      -0.454740       -12.3741
  24   2.0000      -0.415214       -11.2985
  25   2.0000      -0.410225       -11.1628
  26   2.0000      -0.391854       -10.6629
  27   2.0000      -0.382424       -10.4063
  28   2.0000      -0.381700       -10.3866
  29   2.0000      -0.370315       -10.0768
  30   2.0000      -0.341756        -9.2997
  31   2.0000      -0.341250        -9.2859
  32   2.0000      -0.321779        -8.7561
  33   2.0000      -0.286979        -7.8091
  34   2.0000      -0.281058        -7.6480
  35   2.0000      -0.242513        -6.5991
  36   2.0000      -0.203482        -5.5370
  37   0.0000      -0.040998        -1.1156
  38   0.0000      -0.025611        -0.6969
  39   0.0000       0.013114         0.3568
  40   0.0000       0.049945         1.3591
  41   0.0000       0.081749         2.2245

MULLIKEN ATOMIC CHARGES
-----------------------
   0 C :   -0.502712
   1 C :    0.143877
   2 C :   -0.403944
   3 C :    0.433260
   4 C :   -0.289836
   5 C :   -0.184801
   6 C :    0.105437
   7 Cl:   -0.158079
   8 O :   -0.409797
   9 H :    0.145596
  10 H :    0.172620
  11 H :    0.172661
  12 H :    0.139762
  13 H :    0.160098
  14 H :    0.161610
  15 H :    0.314248
Sum of atomic charges:   -0.0000000

LOEWDIN ATOMIC CHARGES
----------------------
   0 C :   -0.390191
   1 C :   -0.096338
   2 C :   -0.164757
   3 C :    0.184624
   4 C :   -0.141641
   5 C :   -0.155716
   6 C :   -0.179217
   7 Cl:    0.116571
   8 O :   -0.492167
   9 H :    0.157404
  10 H :    0.171337
  11 H :    0.171343
  12 H :    0.171338
  13 H :    0.182445
  14 H :    0.178947
  15 H :    0.286018

  Mayer bond orders larger than 0.100000
B(  0-C ,  1-C ) :   0.8089 B(  0-C ,  9-H ) :   0.9908 B(  0-C , 10-H ) :   0.9664
B(  0-C , 11-H ) :   0.9664 B(  1-C ,  2-C ) :   1.3969 B(  1-C ,  6-C ) :   1.4119
B(  2-C ,  3-C ) :   1.3620 B(  2-C , 12-H ) :   0.9001 B(  3-C ,  4-C ) :   1.4261
B(  3-C ,  8-O ) :   0.9224 B(  4-C ,  5-C ) :   1.3644 B(  4-C , 13-H ) :   0.9438
B(  5-C ,  6-C ) :   1.3766 B(  5-C , 14-H ) :   0.9413 B(  6-C ,  7-Cl) :   0.9745
B(  8-O , 15-H ) :   0.8815

Dispersion correction           -0.005763871
FINAL SINGLE POINT ENERGY      -806.285060543711

DIPOLE MOMENT
-------------

Method             : SCF
Type of density    : Electron Density
Multiplicity       :   1
Irrep              :   0
Energy             :  -806.2861726740978838 Eh
Relativity type    :
Basis              : AO
                                X                 Y                 Z
Electronic contribution:     -5.685898183       5.325215583       0.000058346
Nuclear contribution   :      6.272718100      -6.053876400      -0.000112936
                        -----------------------------------------
Total Dipole Moment    :      0.586819917      -0.728660817      -0.000054591
                        -----------------------------------------
Magnitude (a.u.)       :      0.935576937
Magnitude (Debye)      :      2.378047586

Rotational constants in cm-1:             0.096181             0.031419             0.023786
Rotational constants in MHz :          2883.439095           941.910803           713.098081

                             ****ORCA TERMINATED NORMALLY****
TOTAL RUN TIME: 0 days 0 hours 0 minutes 25 seconds 278 msec
