                         Program Version 6.0.0  -   RELEASE  -
|  1> ! r2scan-3c def2/J RI DEFGRID2 scfconv6 printgap
|  2> %output
|  3>     printlevel normal
|  4> end
|  5> %cpcm
|  6>     smd true
|  7>     smdsolvent "water"
|  8> end
|  9> * xyz 0 1
| 10> C -1.0478115052 -2.1832439872 -3.6793e-06
| 11> C -0.1917459498 -0.9576118993 3.0038e-06
| 12> C 1.193030122 -1.0499966052 -3.35552e-05
| 13> C 1.9965965006 0.0846803861 5.399e-07
| 14> C 1.4045953254 1.3450595678 4.892e-06
| 15> C 0.0288352975 1.4567658768 -4.33313e-05
| 16> C -0.7532439809 0.3151795789 3.47141e-05
| 17> Cl -2.4901655797 0.4917802478 7.1946e-06
| 18> O 3.3499571628 0.0150461529 1.91e-05
| 19> H -0.4382576929 -3.0812525919 0.0008779657
| 20> H -1.6924662328 -2.1893297974 0.8773763807
| 21> H -1.6912011485 -2.1902743104 -0.8783181048
| 22> H 1.6482168103 -2.029538283 4.6291e-05
| 23> H 2.0335009089 2.2198072549 6.78382e-05
| 24> H -0.4376768489 2.4286606318 -0.0001367011
| 25> H 3.6485566309 -0.9075768696 -2.4057e-05
| 26> *
| 27>
| 28>                          ****END OF INPUT****

CARTESIAN COORDINATES (ANGSTROEM)
---------------------------------
  C     -1.047812   -2.183244   -0.000004
  C     -0.191746   -0.957612    0.000003
  C      1.193030   -1.049997   -0.000034
  C      1.996597    0.084680    0.000001
  C      1.404595    1.345060    0.000005
  C      0.028835    1.456766   -0.000043
  C     -0.753244    0.315180    0.000035
  Cl    -2.490166    0.491780    0.000007
  O      3.349957    0.015046    0.000019
  H     -0.438258   -3.081253    0.000878
  H     -1.692466   -2.189330    0.877376
  H     -1.691201   -2.190274   -0.878318
  H      1.648217   -2.029538    0.000046
  H      2.033501    2.219807    0.000068
  H     -0.437677    2.428661   -0.000137
  H      3.648557   -0.907577   -0.000024

 Total Charge           Charge          ....    0
 Multiplicity           Mult            ....    1
 Number of Electrons    NEL             ....   74
 Basis Dimension        Dim             ....  219

ORBITAL ENERGIES
----------------

  NO   OCC          E(Eh)            E(eV)
   0   2.0000    -101.218083     -2754.2841
   1   2.0000     -18.985486      -516.6213
   2   2.0000     -10.100625      -274.8520
   3   2.0000     -10.088338      -274.5176
   4   2.0000     -10.056302      -273.6459
   5   2.0000     -10.044863      -273.3346
   6   2.0000     -10.035055      -273.0677
   7   2.0000     -10.034948      -273.0648
   8   2.0000     -10.023449      -272.7519
   9   2.0000      -9.374109      -255.0825
  10   2.0000      -7.120098      -193.7477
  11   2.0000      -7.110516      -193.4870
  12   2.0000      -7.109986      -193.4725
  13   2.0000      -1.030627       -28.0448
  14   2.0000      -0.860655       -23.4196
  15   2.0000      -0.800167       -21.7736
  16   2.0000      -0.749600       -20.3977
  17   2.0000      -0.697399       -18.9772
  18   2.0000      -0.660157       -17.9638
  19   2.0000      -0.593305       -16.1447
  20   2.0000      -0.559361       -15.2210
  21   2.0000      -0.513516       -13.9735
  22   2.0000      -0.469817       -12.7844
  23   2.0000      -0.451035       -12.2733
  24   2.0000      -0.406981       -11.0745
  25   2.0000      -0.405393       -11.0313
  26   2.0000      -0.385070       -10.4783
  27   2.0000      -0.376834       -10.2542
  28   2.0000      -0.374908       -10.2018
  29   2.0000      -0.364533        -9.9194
  30   2.0000      -0.341167        -9.2836
  31   2.0000      -0.334075        -9.0906
  32   2.0000      -0.315941        -8.5972
  33   2.0000      -0.288188        -7.8420
  34   2.0000      -0.283873        -7.7246
  35   2.0000      -0.239490        -6.5169
  36   2.0000      -0.202986        -5.5235
  37   0.0000      -0.037883        -1.0308
  38   0.0000      -0.024291        -0.6610
  39   0.0000       0.013107         0.3566
  40   0.0000       0.079506         2.1635
  41   0.0000       0.095816         2.6073

MULLIKEN ATOMIC CHARGES
-----------------------
   0 C :   -0.535149
   1 C :    0.140365
   2 C :   -0.391632
   3 C :    0.384228
   4 C :   -0.331677
   5 C :   -0.219596
   6 C :    0.093608
   7 Cl:   -0.176154
   8 O :   -0.451613
   9 H :    0.174562
  10 H :    0.184180
  11 H :    0.184261
  12 H :    0.188860
  13 H :    0.190044
  14 H :    0.192293
  15 H :    0.373421
Sum of atomic charges:   -0.0000000

LOEWDIN ATOMIC CHARGES
----------------------
   0 C :   -0.394993
   1 C :   -0.100010
   2 C :   -0.155358
   3 C :    0.175481
   4 C :   -0.155904
   5 C :   -0.166358
   6 C :   -0.193155
   7 Cl:    0.100352
   8 O :   -0.506120
   9 H :    0.168344
  10 H :    0.174170
  11 H :    0.174191
  12 H :    0.191467
  13 H :    0.191152
  14 H :    0.188517
  15 H :    0.308225

  Mayer bond orders larger than 0.100000
B(  0-C ,  1-C ) :   0.8193 B(  0-C ,  9-H ) :   0.9784 B(  0-C , 10-H ) :   0.9654
B(  0-C , 11-H ) :   0.9654 B(  1-C ,  2-C ) :   1.3731 B(  1-C ,  6-C ) :   1.3518
B(  2-C ,  3-C ) :   1.3676 B(  2-C , 12-H ) :   0.9291 B(  3-C ,  4-C ) :   1.3677
B(  3-C ,  8-O ) :   0.9375 B(  4-C ,  5-C ) :   1.3732 B(  4-C , 13-H ) :   0.9505
B(  5-C ,  6-C ) :   1.3388 B(  5-C , 14-H ) :   0.9452 B(  6-C ,  7-Cl) :   0.9635
B(  8-O , 15-H ) :   0.8491

Dispersion correction           -0.005763871
FINAL SINGLE POINT ENERGY      -806.293902473029

DIPOLE MOMENT
-------------

Method             : SCF
Type of density    : Electron Density
Multiplicity       :   1
Irrep              :   0
Energy             :  -806.2950146034156660 Eh
Relativity type    :
Basis              : AO
                                X                 Y                 Z
Electronic contribution:     -5.450804177       4.955470440       0.000031826
Nuclear contribution   :      6.272718100      -6.053876400      -0.000112936
                        -----------------------------------------
Total Dipole Moment    :      0.821913923      -1.098405960      -0.000081110
                        -----------------------------------------
Magnitude (a.u.)       :      1.371873958
Magnitude (Debye)      :      3.487026484

Rotational constants in cm-1:             0.096181             0.031419             0.023786
Rotational constants in MHz :          2883.439095           941.910803           713.098081

                             ****ORCA TERMINATED NORMALLY****
TOTAL RUN TIME: 0 days 0 hours 0 minutes 31 seconds 178 msec
