                         Program Version 6.0.0  -   RELEASE  -
|  1> ! pbe def2-sv(p) def2/J RI DEFGRID1 loosescf d4 GCP(DFT/SV(P)) printgap
|  2> %output
|  3>     printlevel normal
|  4> end
|  5> * xyz 0 1
|  6> C 4.6613031701 -1.5285697883 -1.0267891174
|  7> C 4.7051674895 -0.0969012346 -0.5334079594
|  8> O 3.5681564569 0.2292484456 0.2850079133
|  9> P 2.0902450326 0.3289024619 -0.3015703715
| 10> S 2.0166782756 1.125535379 -2.0967968841
| 11> O 1.3703699886 1.0968201543 0.8809481639
| 12> C 1.5361013989 2.520706319 1.0560304539
| 13> C 0.6734317473 2.9413981713 2.226242667
| 14> S 1.2985701652 -1.5960365849 -0.0506161483
| 15> C 0.0662836922 -1.615608639 -1.3999266099
| 16> S -1.6223094317 -1.8587694679 -0.8123698943
| 17> P -1.8871481607 0.0095187369 0.1705716157
| 18> S -1.3439305155 1.586683548 -0.8525237635
| 19> O -1.142480239 -0.1106918034 1.5511012497
| 20> C -1.3426400313 -1.1961241122 2.4919341054
| 21> C -2.3564617666 -0.8127608903 3.549392033
| 22> O -3.4168373118 -0.0094526536 0.6020249924
| 23> C -4.4887187467 0.3008771035 -0.3075809648
| 24> C -5.0146375078 -0.9445131114 -0.9934336194
| 25> H 4.5148186695 -2.2116937235 -0.1940077017
| 26> H 3.8411069342 -1.6515138542 -1.7327850473
| 27> H 5.5947643773 -1.7629262291 -1.528165794
| 28> H 4.7320623278 0.5996843072 -1.3774943825
| 29> H 5.5579316769 0.0791774419 0.1235722944
| 30> H 2.5947571774 2.7260830691 1.236514666
| 31> H 1.2245526994 3.0173413446 0.1302933859
| 32> H 0.7715878033 4.0116416144 2.3756470515
| 33> H -0.3661815912 2.7007592546 2.0166512801
| 34> H 0.9834979686 2.415237267 3.124192983
| 35> H 0.2836657226 -2.4658235847 -2.0412042142
| 36> H 0.139428795 -0.6750335427 -1.953329263
| 37> H -1.6594873669 -2.0878889434 1.9437809819
| 38> H -0.3535176833 -1.3634901806 2.9231002622
| 39> H -3.3282950727 -0.6410433376 3.0948539548
| 40> H -2.4348781373 -1.6201629106 4.2707388139
| 41> H -2.0422015947 0.0940360109 4.0588401918
| 42> H -5.253846485 0.7578249469 0.3226904188
| 43> H -4.1303382847 1.0372598489 -1.0344280416
| 44> H -5.3036486841 -1.6843972652 -0.2525970148
| 45> H -5.88046906 -0.6785589123 -1.5913363639
| 46> H -4.2554186655 -1.3765461863 -1.6409655899
| 47> *
| 48>
| 49>                          ****END OF INPUT****

CARTESIAN COORDINATES (ANGSTROEM)
---------------------------------
  C      4.661303   -1.528570   -1.026789
  C      4.705167   -0.096901   -0.533408
  O      3.568156    0.229248    0.285008
  P      2.090245    0.328902   -0.301570
  S      2.016678    1.125535   -2.096797
  O      1.370370    1.096820    0.880948
  C      1.536101    2.520706    1.056030
  C      0.673432    2.941398    2.226243
  S      1.298570   -1.596037   -0.050616
  C      0.066284   -1.615609   -1.399927
  S     -1.622309   -1.858769   -0.812370
  P     -1.887148    0.009519    0.170572
  S     -1.343931    1.586684   -0.852524
  O     -1.142480   -0.110692    1.551101
  C     -1.342640   -1.196124    2.491934
  C     -2.356462   -0.812761    3.549392
  O     -3.416837   -0.009453    0.602025
  C     -4.488719    0.300877   -0.307581
  C     -5.014638   -0.944513   -0.993434
  H      4.514819   -2.211694   -0.194008
  H      3.841107   -1.651514   -1.732785
  H      5.594764   -1.762926   -1.528166
  H      4.732062    0.599684   -1.377494
  H      5.557932    0.079177    0.123572
  H      2.594757    2.726083    1.236515
  H      1.224553    3.017341    0.130293
  H      0.771588    4.011642    2.375647
  H     -0.366182    2.700759    2.016651
  H      0.983498    2.415237    3.124193
  H      0.283666   -2.465824   -2.041204
  H      0.139429   -0.675034   -1.953329
  H     -1.659487   -2.087889    1.943781
  H     -0.353518   -1.363490    2.923100
  H     -3.328295   -0.641043    3.094854
  H     -2.434878   -1.620163    4.270739
  H     -2.042202    0.094036    4.058840
  H     -5.253846    0.757825    0.322690
  H     -4.130338    1.037260   -1.034428
  H     -5.303649   -1.684397   -0.252597
  H     -5.880469   -0.678559   -1.591336
  H     -4.255419   -1.376546   -1.640966

 Total Charge           Charge          ....    0
 Multiplicity           Mult            ....    1
 Number of Electrons    NEL             ....  202
 Basis Dimension        Dim             ....  334

ORBITAL ENERGIES
----------------

  NO   OCC          E(Eh)            E(eV)
   0   2.0000     -88.045397     -2395.8371
   1   2.0000     -88.042590     -2395.7607
   2   2.0000     -87.981340     -2394.0940
   3   2.0000     -87.979905     -2394.0549
   4   2.0000     -76.424860     -2079.6262
   5   2.0000     -76.419032     -2079.4676
   6   2.0000     -18.796364      -511.4751
   7   2.0000     -18.790469      -511.3147
   8   2.0000     -18.787039      -511.2213
   9   2.0000     -18.777504      -510.9619
  10   2.0000      -9.955526      -270.9036
  11   2.0000      -9.953974      -270.8614
  12   2.0000      -9.952736      -270.8277
  13   2.0000      -9.947082      -270.6739
  14   2.0000      -9.938831      -270.4494
  15   2.0000      -9.887271      -269.0463
  16   2.0000      -9.885373      -268.9947
  17   2.0000      -9.880697      -268.8674
  18   2.0000      -9.872667      -268.6489
  19   2.0000      -7.690402      -209.2665
  20   2.0000      -7.687835      -209.1966
  21   2.0000      -7.626301      -207.5222
  22   2.0000      -7.624858      -207.4829
  23   2.0000      -6.422432      -174.7633
  24   2.0000      -6.416806      -174.6102
  25   2.0000      -5.718169      -155.5993
  26   2.0000      -5.715684      -155.5317
  27   2.0000      -5.714692      -155.5047
  28   2.0000      -5.712407      -155.4425
  29   2.0000      -5.707686      -155.3140
  30   2.0000      -5.704678      -155.2322
  31   2.0000      -5.655281      -153.8880
  32   2.0000      -5.653727      -153.8457
  33   2.0000      -5.646761      -153.6562
  34   2.0000      -5.646527      -153.6498
  35   2.0000      -5.645651      -153.6260
  36   2.0000      -5.644908      -153.6058
  37   2.0000      -4.645299      -126.4050
  38   2.0000      -4.644295      -126.3777
  39   2.0000      -4.642497      -126.3288
  40   2.0000      -4.639154      -126.2378
  41   2.0000      -4.638364      -126.2163
  42   2.0000      -4.637621      -126.1961
  43   2.0000      -0.988899       -26.9093
  44   2.0000      -0.978749       -26.6331
  45   2.0000      -0.945979       -25.7414
  46   2.0000      -0.934957       -25.4415
  47   2.0000      -0.763172       -20.7670
  48   2.0000      -0.719763       -19.5857
  49   2.0000      -0.707106       -19.2413
  50   2.0000      -0.691308       -18.8114
  51   2.0000      -0.681636       -18.5482
  52   2.0000      -0.672629       -18.3032
  53   2.0000      -0.647607       -17.6223
  54   2.0000      -0.630385       -17.1537
  55   2.0000      -0.597549       -16.2601
  56   2.0000      -0.588583       -16.0162
  57   2.0000      -0.573929       -15.6174
  58   2.0000      -0.564730       -15.3671
  59   2.0000      -0.554342       -15.0844
  60   2.0000      -0.501386       -13.6434
  61   2.0000      -0.495149       -13.4737
  62   2.0000      -0.479238       -13.0407
  63   2.0000      -0.465829       -12.6759
  64   2.0000      -0.450902       -12.2697
  65   2.0000      -0.443929       -12.0799
  66   2.0000      -0.439939       -11.9713
  67   2.0000      -0.432462       -11.7679
  68   2.0000      -0.426072       -11.5940
  69   2.0000      -0.418609       -11.3909
  70   2.0000      -0.408293       -11.1102
  71   2.0000      -0.392735       -10.6869
  72   2.0000      -0.388452       -10.5703
  73   2.0000      -0.383291       -10.4299
  74   2.0000      -0.382964       -10.4210
  75   2.0000      -0.368240       -10.0203
  76   2.0000      -0.363526        -9.8920
  77   2.0000      -0.355984        -9.6868
  78   2.0000      -0.354644        -9.6503
  79   2.0000      -0.348881        -9.4935
  80   2.0000      -0.347636        -9.4597
  81   2.0000      -0.343595        -9.3497
  82   2.0000      -0.335939        -9.1414
  83   2.0000      -0.333913        -9.0862
  84   2.0000      -0.324041        -8.8176
  85   2.0000      -0.318032        -8.6541
  86   2.0000      -0.308820        -8.4034
  87   2.0000      -0.295443        -8.0394
  88   2.0000      -0.291892        -7.9428
  89   2.0000      -0.290723        -7.9110
  90   2.0000      -0.278959        -7.5909
  91   2.0000      -0.271099        -7.3770
  92   2.0000      -0.265175        -7.2158
  93   2.0000      -0.261347        -7.1116
  94   2.0000      -0.256342        -6.9754
  95   2.0000      -0.238166        -6.4808
  96   2.0000      -0.220480        -5.9996
  97   2.0000      -0.213208        -5.8017
  98   2.0000      -0.202940        -5.5223
  99   2.0000      -0.192388        -5.2351
 100   2.0000      -0.183459        -4.9922
 101   0.0000      -0.039664        -1.0793
 102   0.0000      -0.029724        -0.8088
 103   0.0000      -0.010673        -0.2904
 104   0.0000       0.012841         0.3494
 105   0.0000       0.023677         0.6443

MULLIKEN ATOMIC CHARGES
-----------------------
   0 C :   -0.311086
   1 C :   -0.001564
   2 O :   -0.380432
   3 P :    0.612881
   4 S :   -0.320451
   5 O :   -0.355065
   6 C :   -0.002985
   7 C :   -0.277989
   8 S :   -0.092200
   9 C :   -0.357552
  10 S :   -0.108246
  11 P :    0.602210
  12 S :   -0.291604
  13 O :   -0.341248
  14 C :   -0.011099
  15 C :   -0.288087
  16 O :   -0.380260
  17 C :   -0.005956
  18 C :   -0.309373
  19 H :    0.115504
  20 H :    0.120063
  21 H :    0.110958
  22 H :    0.109660
  23 H :    0.101792
  24 H :    0.094865
  25 H :    0.112021
  26 H :    0.103200
  27 H :    0.125210
  28 H :    0.104540
  29 H :    0.183057
  30 H :    0.210714
  31 H :    0.100720
  32 H :    0.109967
  33 H :    0.119934
  34 H :    0.108491
  35 H :    0.118641
  36 H :    0.106923
  37 H :    0.107299
  38 H :    0.113026
  39 H :    0.114130
  40 H :    0.129390
Sum of atomic charges:    0.0000000

LOEWDIN ATOMIC CHARGES
----------------------
   0 C :   -0.369286
   1 C :   -0.120706
   2 O :   -0.249585
   3 P :    0.569054
   4 S :   -0.312313
   5 O :   -0.234533
   6 C :   -0.116906
   7 C :   -0.352584
   8 S :    0.087266
   9 C :   -0.479738
  10 S :    0.075000
  11 P :    0.562570
  12 S :   -0.288798
  13 O :   -0.222185
  14 C :   -0.117504
  15 C :   -0.359660
  16 O :   -0.247021
  17 C :   -0.119195
  18 C :   -0.366724
  19 H :    0.123060
  20 H :    0.119249
  21 H :    0.129733
  22 H :    0.109420
  23 H :    0.116933
  24 H :    0.106557
  25 H :    0.110555
  26 H :    0.126978
  27 H :    0.125963
  28 H :    0.121498
  29 H :    0.137470
  30 H :    0.127448
  31 H :    0.101688
  32 H :    0.119475
  33 H :    0.125035
  34 H :    0.129087
  35 H :    0.127733
  36 H :    0.119216
  37 H :    0.109227
  38 H :    0.124709
  39 H :    0.132193
  40 H :    0.119620

  Mayer bond orders larger than 0.100000
B(  0-C ,  1-C ) :   1.1656 B(  0-C , 19-H ) :   0.9448 B(  0-C , 20-H ) :   0.9365
B(  0-C , 21-H ) :   0.9384 B(  1-C ,  2-O ) :   0.9139 B(  1-C , 22-H ) :   0.9133
B(  1-C , 23-H ) :   0.9339 B(  2-O ,  3-P ) :   1.0945 B(  3-P ,  4-S ) :   1.6052
B(  3-P ,  5-O ) :   1.1477 B(  3-P ,  8-S ) :   0.9657 B(  4-S ,  8-S ) :   0.1178
B(  5-O ,  6-C ) :   0.8957 B(  6-C ,  7-C ) :   1.1653 B(  6-C , 24-H ) :   0.9273
B(  6-C , 25-H ) :   0.9148 B(  7-C , 26-H ) :   0.9412 B(  7-C , 27-H ) :   0.9413
B(  7-C , 28-H ) :   0.9503 B(  8-S ,  9-C ) :   0.9928 B(  9-C , 10-S ) :   1.0012
B(  9-C , 29-H ) :   0.9113 B(  9-C , 30-H ) :   0.8462 B( 10-S , 11-P ) :   0.9416
B( 10-S , 12-S ) :   0.1034 B( 11-P , 12-S ) :   1.6566 B( 11-P , 13-O ) :   1.1440
B( 11-P , 16-O ) :   1.0809 B( 13-O , 14-C ) :   0.8899 B( 14-C , 15-C ) :   1.1636
B( 14-C , 31-H ) :   0.9095 B( 14-C , 32-H ) :   0.9324 B( 15-C , 33-H ) :   0.9412
B( 15-C , 34-H ) :   0.9400 B( 15-C , 35-H ) :   0.9476 B( 16-O , 17-C ) :   0.9039
B( 17-C , 18-C ) :   1.1671 B( 17-C , 36-H ) :   0.9347 B( 17-C , 37-H ) :   0.9048
B( 18-C , 38-H ) :   0.9485 B( 18-C , 39-H ) :   0.9394 B( 18-C , 40-H ) :   0.9329

Dispersion correction           -0.067610031
FINAL SINGLE POINT ENERGY     -2929.521498493988

DIPOLE MOMENT
-------------

Method             : SCF
Type of density    : Electron Density
Multiplicity       :   1
Irrep              :   0
Energy             : -2929.6395562895186231 Eh
Relativity type    :
Basis              : AO
                                X                 Y                 Z
Electronic contribution:      4.327280453       0.117223295     -10.845463358
Nuclear contribution   :     -4.661136032      -0.994830809      11.792208795
                        -----------------------------------------
Total Dipole Moment    :     -0.333855579      -0.877607514       0.946745436
                        -----------------------------------------
Magnitude (a.u.)       :      1.333409696
Magnitude (Debye)      :      3.389258099

Rotational constants in cm-1:             0.012551             0.005398             0.005113
Rotational constants in MHz :           376.257687           161.831844           153.292700

                             ****ORCA TERMINATED NORMALLY****
TOTAL RUN TIME: 0 days 0 hours 0 minutes 21 seconds 836 msec
