                         Program Version 6.0.0  -   RELEASE  -
|  1> ! pbe def2-sv(p) def2/J RI DEFGRID1 loosescf d4 GCP(DFT/SV(P)) printgap
|  2> %output
|  3>     printlevel normal
|  4> end
|  5> * xyz 0 1
|  6> C 1.4895647007 -3.5775503503 -0.395015223
|  7> C 2.5185565212 -2.5838156465 -0.894042638
|  8> O 1.8753445577 -1.3198655289 -1.2132669193
|  9> P 2.1483897398 0.0055100995 -0.4038314746
| 10> S 1.1696762858 1.5302705753 -1.143641027
| 11> O 3.7353265078 0.1028527908 -0.4829298083
| 12> C 4.4628312147 1.3172026618 -0.2290062772
| 13> C 4.332231332 1.7827733637 1.2068033133
| 14> S 1.7932707404 -0.4728948109 1.6400232853
| 15> C 0.043921143 -0.0485522547 1.7071110109
| 16> S -0.9611810176 -1.0891822394 0.5842566742
| 17> P -2.4458333812 0.3084619528 -0.0086753922
| 18> S -2.1236165242 2.1882153947 0.4653419689
| 19> O -3.8123789135 -0.2970463081 0.5155256473
| 20> C -4.4005103228 0.0855440082 1.7697129889
| 21> C -3.5693785 -0.3672072851 2.953941591
| 22> O -2.7414113567 -0.0175964485 -1.5284656698
| 23> C -1.9206712582 0.3886418063 -2.6368295812
| 24> C -1.0761182476 -0.7677294687 -3.1355821285
| 25> H 1.0461034418 -3.2350101454 0.5370909688
| 26> H 0.6972073748 -3.6976439672 -1.1283337796
| 27> H 1.9744232026 -4.5342365885 -0.229848342
| 28> H 2.971974168 -2.9136262013 -1.829772046
| 29> H 3.2979575161 -2.4093830271 -0.1495103031
| 30> H 5.492959394 1.0559557449 -0.475733372
| 31> H 4.0997275619 2.0865011177 -0.917562956
| 32> H 4.5777897988 0.9752751669 1.8919223744
| 33> H 5.0066469714 2.6165225433 1.3740885572
| 34> H 3.3128377376 2.1128958536 1.4015547052
| 35> H -0.1018149844 0.9972740422 1.421651474
| 36> H -0.2610332462 -0.2265765277 2.7354978036
| 37> H -4.5229050644 1.1732606511 1.7799455856
| 38> H -5.3784016109 -0.3976053971 1.7544698731
| 39> H -4.1236899375 -0.1913766995 3.8703351533
| 40> H -3.3371740896 -1.4259508201 2.869237188
| 41> H -2.6423470274 0.2039664221 2.9890999429
| 42> H -2.6297155007 0.7143410174 -3.400917552
| 43> H -1.2964185015 1.2390925544 -2.3425708194
| 44> H -1.7074853045 -1.6314498004 -3.3238101594
| 45> H -0.5803791768 -0.4712897097 -4.0545545625
| 46> H -0.3173231405 -1.0338923066 -2.4026311483
| 47> *
| 48>
| 49>                          ****END OF INPUT****

CARTESIAN COORDINATES (ANGSTROEM)
---------------------------------
  C      1.489565   -3.577550   -0.395015
  C      2.518557   -2.583816   -0.894043
  O      1.875345   -1.319866   -1.213267
  P      2.148390    0.005510   -0.403831
  S      1.169676    1.530271   -1.143641
  O      3.735327    0.102853   -0.482930
  C      4.462831    1.317203   -0.229006
  C      4.332231    1.782773    1.206803
  S      1.793271   -0.472895    1.640023
  C      0.043921   -0.048552    1.707111
  S     -0.961181   -1.089182    0.584257
  P     -2.445833    0.308462   -0.008675
  S     -2.123617    2.188215    0.465342
  O     -3.812379   -0.297046    0.515526
  C     -4.400510    0.085544    1.769713
  C     -3.569379   -0.367207    2.953942
  O     -2.741411   -0.017596   -1.528466
  C     -1.920671    0.388642   -2.636830
  C     -1.076118   -0.767729   -3.135582
  H      1.046103   -3.235010    0.537091
  H      0.697207   -3.697644   -1.128334
  H      1.974423   -4.534237   -0.229848
  H      2.971974   -2.913626   -1.829772
  H      3.297958   -2.409383   -0.149510
  H      5.492959    1.055956   -0.475733
  H      4.099728    2.086501   -0.917563
  H      4.577790    0.975275    1.891922
  H      5.006647    2.616523    1.374089
  H      3.312838    2.112896    1.401555
  H     -0.101815    0.997274    1.421651
  H     -0.261033   -0.226577    2.735498
  H     -4.522905    1.173261    1.779946
  H     -5.378402   -0.397605    1.754470
  H     -4.123690   -0.191377    3.870335
  H     -3.337174   -1.425951    2.869237
  H     -2.642347    0.203966    2.989100
  H     -2.629716    0.714341   -3.400918
  H     -1.296419    1.239093   -2.342571
  H     -1.707485   -1.631450   -3.323810
  H     -0.580379   -0.471290   -4.054555
  H     -0.317323   -1.033892   -2.402631

 Total Charge           Charge          ....    0
 Multiplicity           Mult            ....    1
 Number of Electrons    NEL             ....  202
 Basis Dimension        Dim             ....  334

ORBITAL ENERGIES
----------------

  NO   OCC          E(Eh)            E(eV)
   0   2.0000     -88.050002     -2395.9624
   1   2.0000     -88.040755     -2395.7107
   2   2.0000     -87.987701     -2394.2671
   3   2.0000     -87.984047     -2394.1676
   4   2.0000     -76.429641     -2079.7563
   5   2.0000     -76.421526     -2079.5354
   6   2.0000     -18.796938      -511.4907
   7   2.0000     -18.794619      -511.4276
   8   2.0000     -18.781928      -511.0822
   9   2.0000     -18.781237      -511.0634
  10   2.0000      -9.959457      -271.0106
  11   2.0000      -9.956573      -270.9321
  12   2.0000      -9.955321      -270.8981
  13   2.0000      -9.948893      -270.7231
  14   2.0000      -9.938576      -270.4424
  15   2.0000      -9.887161      -269.0433
  16   2.0000      -9.887005      -269.0391
  17   2.0000      -9.884714      -268.9768
  18   2.0000      -9.868162      -268.5263
  19   2.0000      -7.694814      -209.3865
  20   2.0000      -7.685126      -209.1229
  21   2.0000      -7.632510      -207.6911
  22   2.0000      -7.628950      -207.5943
  23   2.0000      -6.426931      -174.8857
  24   2.0000      -6.418809      -174.6647
  25   2.0000      -5.722684      -155.7222
  26   2.0000      -5.719190      -155.6271
  27   2.0000      -5.712999      -155.4586
  28   2.0000      -5.711966      -155.4305
  29   2.0000      -5.709664      -155.3678
  30   2.0000      -5.702159      -155.1636
  31   2.0000      -5.661546      -154.0585
  32   2.0000      -5.657767      -153.9557
  33   2.0000      -5.652859      -153.8221
  34   2.0000      -5.652821      -153.8211
  35   2.0000      -5.649539      -153.7318
  36   2.0000      -5.649262      -153.7242
  37   2.0000      -4.649739      -126.5258
  38   2.0000      -4.648701      -126.4976
  39   2.0000      -4.647214      -126.4571
  40   2.0000      -4.640994      -126.2879
  41   2.0000      -4.640725      -126.2806
  42   2.0000      -4.639478      -126.2466
  43   2.0000      -0.991736       -26.9865
  44   2.0000      -0.981082       -26.6966
  45   2.0000      -0.947939       -25.7947
  46   2.0000      -0.935789       -25.4641
  47   2.0000      -0.763309       -20.7707
  48   2.0000      -0.720397       -19.6030
  49   2.0000      -0.709850       -19.3160
  50   2.0000      -0.692066       -18.8321
  51   2.0000      -0.680686       -18.5224
  52   2.0000      -0.673255       -18.3202
  53   2.0000      -0.651816       -17.7368
  54   2.0000      -0.632896       -17.2220
  55   2.0000      -0.599974       -16.3261
  56   2.0000      -0.592289       -16.1170
  57   2.0000      -0.578146       -15.7322
  58   2.0000      -0.563528       -15.3344
  59   2.0000      -0.557394       -15.1674
  60   2.0000      -0.506529       -13.7834
  61   2.0000      -0.490517       -13.3477
  62   2.0000      -0.475340       -12.9347
  63   2.0000      -0.462446       -12.5838
  64   2.0000      -0.451175       -12.2771
  65   2.0000      -0.448765       -12.2115
  66   2.0000      -0.444409       -12.0930
  67   2.0000      -0.435008       -11.8372
  68   2.0000      -0.431174       -11.7328
  69   2.0000      -0.415214       -11.2985
  70   2.0000      -0.411909       -11.2086
  71   2.0000      -0.396200       -10.7811
  72   2.0000      -0.389675       -10.6036
  73   2.0000      -0.386017       -10.5041
  74   2.0000      -0.379172       -10.3178
  75   2.0000      -0.371746       -10.1157
  76   2.0000      -0.367469        -9.9993
  77   2.0000      -0.359701        -9.7880
  78   2.0000      -0.353722        -9.6253
  79   2.0000      -0.351324        -9.5600
  80   2.0000      -0.345071        -9.3899
  81   2.0000      -0.342055        -9.3078
  82   2.0000      -0.341501        -9.2927
  83   2.0000      -0.336171        -9.1477
  84   2.0000      -0.325489        -8.8570
  85   2.0000      -0.316995        -8.6259
  86   2.0000      -0.308058        -8.3827
  87   2.0000      -0.304462        -8.2848
  88   2.0000      -0.296784        -8.0759
  89   2.0000      -0.290970        -7.9177
  90   2.0000      -0.279366        -7.6019
  91   2.0000      -0.275756        -7.5037
  92   2.0000      -0.265657        -7.2289
  93   2.0000      -0.262551        -7.1444
  94   2.0000      -0.254376        -6.9219
  95   2.0000      -0.233369        -6.3503
  96   2.0000      -0.223751        -6.0886
  97   2.0000      -0.211461        -5.7541
  98   2.0000      -0.203435        -5.5357
  99   2.0000      -0.200018        -5.4428
 100   2.0000      -0.190857        -5.1935
 101   0.0000      -0.045900        -1.2490
 102   0.0000      -0.036005        -0.9797
 103   0.0000      -0.013615        -0.3705
 104   0.0000       0.006970         0.1897
 105   0.0000       0.012283         0.3342

MULLIKEN ATOMIC CHARGES
-----------------------
   0 C :   -0.286234
   1 C :   -0.013691
   2 O :   -0.351410
   3 P :    0.598813
   4 S :   -0.297216
   5 O :   -0.379518
   6 C :    0.001861
   7 C :   -0.321512
   8 S :   -0.109513
   9 C :   -0.357609
  10 S :   -0.122157
  11 P :    0.612667
  12 S :   -0.317327
  13 O :   -0.360486
  14 C :    0.006582
  15 C :   -0.329013
  16 O :   -0.358395
  17 C :   -0.009895
  18 C :   -0.320046
  19 H :    0.122832
  20 H :    0.124323
  21 H :    0.109080
  22 H :    0.113025
  23 H :    0.105687
  24 H :    0.105544
  25 H :    0.113962
  26 H :    0.116979
  27 H :    0.115742
  28 H :    0.132872
  29 H :    0.213024
  30 H :    0.186104
  31 H :    0.110801
  32 H :    0.105860
  33 H :    0.112328
  34 H :    0.121286
  35 H :    0.121650
  36 H :    0.100604
  37 H :    0.123995
  38 H :    0.104023
  39 H :    0.104570
  40 H :    0.149806
Sum of atomic charges:   -0.0000000

LOEWDIN ATOMIC CHARGES
----------------------
   0 C :   -0.359112
   1 C :   -0.111977
   2 O :   -0.232364
   3 P :    0.567266
   4 S :   -0.286968
   5 O :   -0.249773
   6 C :   -0.115455
   7 C :   -0.371329
   8 S :    0.080727
   9 C :   -0.481591
  10 S :    0.070032
  11 P :    0.569236
  12 S :   -0.302917
  13 O :   -0.239647
  14 C :   -0.116020
  15 C :   -0.370292
  16 O :   -0.232677
  17 C :   -0.116550
  18 C :   -0.368827
  19 H :    0.115850
  20 H :    0.129837
  21 H :    0.129229
  22 H :    0.122375
  23 H :    0.107925
  24 H :    0.119052
  25 H :    0.113973
  26 H :    0.122593
  27 H :    0.132432
  28 H :    0.123339
  29 H :    0.123558
  30 H :    0.131216
  31 H :    0.110634
  32 H :    0.119502
  33 H :    0.130491
  34 H :    0.125479
  35 H :    0.118251
  36 H :    0.116218
  37 H :    0.105928
  38 H :    0.120608
  39 H :    0.128842
  40 H :    0.120905

  Mayer bond orders larger than 0.100000
B(  0-C ,  1-C ) :   1.1653 B(  0-C , 19-H ) :   0.9333 B(  0-C , 20-H ) :   0.9462
B(  0-C , 21-H ) :   0.9389 B(  1-C ,  2-O ) :   0.8842 B(  1-C , 22-H ) :   0.9339
B(  1-C , 23-H ) :   0.9168 B(  2-O ,  3-P ) :   1.1221 B(  3-P ,  4-S ) :   1.6464
B(  3-P ,  5-O ) :   1.0906 B(  3-P ,  8-S ) :   0.9349 B(  4-S ,  8-S ) :   0.1074
B(  5-O ,  6-C ) :   0.9055 B(  6-C ,  7-C ) :   1.1665 B(  6-C , 24-H ) :   0.9346
B(  6-C , 25-H ) :   0.9188 B(  7-C , 26-H ) :   0.9433 B(  7-C , 27-H ) :   0.9368
B(  7-C , 28-H ) :   0.9351 B(  8-S ,  9-C ) :   1.0099 B(  9-C , 10-S ) :   0.9948
B(  9-C , 29-H ) :   0.8463 B(  9-C , 30-H ) :   0.8972 B( 10-S , 11-P ) :   0.9390
B( 10-S , 12-S ) :   0.1237 B( 11-P , 12-S ) :   1.6097 B( 11-P , 13-O ) :   1.1122
B( 11-P , 16-O ) :   1.1479 B( 13-O , 14-C ) :   0.9241 B( 14-C , 15-C ) :   1.1601
B( 14-C , 31-H ) :   0.9175 B( 14-C , 32-H ) :   0.9346 B( 15-C , 33-H ) :   0.9375
B( 15-C , 34-H ) :   0.9434 B( 15-C , 35-H ) :   0.9319 B( 16-O , 17-C ) :   0.9010
B( 17-C , 18-C ) :   1.1706 B( 17-C , 36-H ) :   0.9345 B( 17-C , 37-H ) :   0.9027
B( 18-C , 38-H ) :   0.9464 B( 18-C , 39-H ) :   0.9398 B( 18-C , 40-H ) :   0.9231

Dispersion correction           -0.067533677
FINAL SINGLE POINT ENERGY     -2929.521586872022

DIPOLE MOMENT
-------------

Method             : SCF
Type of density    : Electron Density
Multiplicity       :   1
Irrep              :   0
Energy             : -2929.6392625274156671 Eh
Relativity type    :
Basis              : AO
                                X                 Y                 Z
Electronic contribution:     -4.492921885       7.723326639      -1.924454060
Nuclear contribution   :      5.489330794      -8.802579635       2.506839805
                        -----------------------------------------
Total Dipole Moment    :      0.996408909      -1.079252996       0.582385745
                        -----------------------------------------
Magnitude (a.u.)       :      1.580123697
Magnitude (Debye)      :      4.016355254

Rotational constants in cm-1:             0.011894             0.005246             0.005126
Rotational constants in MHz :           356.581934           157.279825           153.671659

                             ****ORCA TERMINATED NORMALLY****
TOTAL RUN TIME: 0 days 0 hours 0 minutes 21 seconds 480 msec
