                         Program Version 6.0.0  -   RELEASE  -
|  1> ! r2scan-3c def2/J RI DEFGRID2 scfconv6 printgap
|  2> %output
|  3>     printlevel normal
|  4> end
|  5> * xyz 0 1
|  6> C 5.0114201816 -1.2770055873 -1.5705416672
|  7> C 3.6051905044 -1.8200574359 -1.7368430968
|  8> O 2.8399852552 -1.6955016252 -0.5221344741
|  9> P 2.0593529511 -0.3801626035 -0.0989336328
| 10> S 3.1012608546 1.2449868888 0.26283127
| 11> O 1.2409729229 -0.9585942353 1.1236422634
| 12> C 1.4350743554 -0.514635397 2.4777399908
| 13> C 2.6269838088 -1.209701009 3.1017968881
| 14> S 0.6104885541 -0.2024908333 -1.6370305586
| 15> C 0.106434847 1.4954130509 -1.2661403512
| 16> S -0.6054537246 1.6843426454 0.3946593953
| 17> P -2.250610969 0.396049955 0.1164024089
| 18> S -3.0611992214 0.2943774293 -1.6687978384
| 19> O -3.2745454829 0.7947648312 1.2682898733
| 20> C -4.3091282469 1.7757468501 1.0767515114
| 21> C -3.7464046078 3.1745109893 0.9285793762
| 22> O -1.645094104 -0.938986245 0.7146745426
| 23> C -2.2292217397 -2.2399603692 0.4773506084
| 24> C -1.3704978969 -3.0248025406 -0.494724662
| 25> H 5.5129391847 -1.7813938433 -0.7491604131
| 26> H 5.5684912556 -1.4431009639 -2.4869620546
| 27> H 4.9851417196 -0.2102116031 -1.360119148
| 28> H 3.6163134936 -2.8939701806 -1.9330233466
| 29> H 3.0772666788 -1.3077193238 -2.5465570415
| 30> H 1.572063703 0.57223078 2.4811700372
| 31> H 0.5002728499 -0.7661311023 2.9811951555
| 32> H 3.5325189704 -0.9311900946 2.5642326102
| 33> H 2.7217755295 -0.9050182105 4.1391480853
| 34> H 2.5043086975 -2.2878899795 3.0478792529
| 35> H -0.6340777986 1.766311157 -2.0175604946
| 36> H 0.9737923674 2.1541428779 -1.3014900476
| 37> H -4.8876047626 1.4976705344 0.189860027
| 38> H -4.9280278919 1.6814302691 1.9699309944
| 39> H -3.1825819611 3.2525777356 -0.0001823557
| 40> H -4.56242016 3.8896181974 0.9058532454
| 41> H -3.0846590218 3.406128891 1.7594606078
| 42> H -2.2649196797 -2.7188155048 1.4572261625
| 43> H -3.2451962584 -2.1156860716 0.0911944782
| 44> H -1.3898666322 -2.556612518 -1.4769140405
| 45> H -0.3418919126 -3.0501480304 -0.142050552
| 46> H -1.7516016123 -4.0377572524 -0.5743489668
| 47> *
| 48>
| 49>                          ****END OF INPUT****

CARTESIAN COORDINATES (ANGSTROEM)
---------------------------------
  C      5.011420   -1.277006   -1.570542
  C      3.605191   -1.820057   -1.736843
  O      2.839985   -1.695502   -0.522134
  P      2.059353   -0.380163   -0.098934
  S      3.101261    1.244987    0.262831
  O      1.240973   -0.958594    1.123642
  C      1.435074   -0.514635    2.477740
  C      2.626984   -1.209701    3.101797
  S      0.610489   -0.202491   -1.637031
  C      0.106435    1.495413   -1.266140
  S     -0.605454    1.684343    0.394659
  P     -2.250611    0.396050    0.116402
  S     -3.061199    0.294377   -1.668798
  O     -3.274545    0.794765    1.268290
  C     -4.309128    1.775747    1.076752
  C     -3.746405    3.174511    0.928579
  O     -1.645094   -0.938986    0.714675
  C     -2.229222   -2.239960    0.477351
  C     -1.370498   -3.024803   -0.494725
  H      5.512939   -1.781394   -0.749160
  H      5.568491   -1.443101   -2.486962
  H      4.985142   -0.210212   -1.360119
  H      3.616313   -2.893970   -1.933023
  H      3.077267   -1.307719   -2.546557
  H      1.572064    0.572231    2.481170
  H      0.500273   -0.766131    2.981195
  H      3.532519   -0.931190    2.564233
  H      2.721776   -0.905018    4.139148
  H      2.504309   -2.287890    3.047879
  H     -0.634078    1.766311   -2.017560
  H      0.973792    2.154143   -1.301490
  H     -4.887605    1.497671    0.189860
  H     -4.928028    1.681430    1.969931
  H     -3.182582    3.252578   -0.000182
  H     -4.562420    3.889618    0.905853
  H     -3.084659    3.406129    1.759461
  H     -2.264920   -2.718816    1.457226
  H     -3.245196   -2.115686    0.091194
  H     -1.389867   -2.556613   -1.476914
  H     -0.341892   -3.050148   -0.142051
  H     -1.751602   -4.037757   -0.574349

 Total Charge           Charge          ....    0
 Multiplicity           Mult            ....    1
 Number of Electrons    NEL             ....  202
 Basis Dimension        Dim             ....  539

ORBITAL ENERGIES
----------------

  NO   OCC          E(Eh)            E(eV)
   0   2.0000     -88.576210     -2410.2812
   1   2.0000     -88.573901     -2410.2184
   2   2.0000     -88.521286     -2408.7867
   3   2.0000     -88.520540     -2408.7663
   4   2.0000     -76.913609     -2092.9257
   5   2.0000     -76.913048     -2092.9104
   6   2.0000     -18.993406      -516.8369
   7   2.0000     -18.991157      -516.7757
   8   2.0000     -18.985552      -516.6231
   9   2.0000     -18.984346      -516.5903
  10   2.0000     -10.106281      -275.0059
  11   2.0000     -10.101900      -274.8867
  12   2.0000     -10.097195      -274.7586
  13   2.0000     -10.095687      -274.7176
  14   2.0000     -10.091830      -274.6127
  15   2.0000     -10.028210      -272.8815
  16   2.0000     -10.026053      -272.8228
  17   2.0000     -10.024605      -272.7834
  18   2.0000     -10.021354      -272.6949
  19   2.0000      -7.870592      -214.1697
  20   2.0000      -7.868279      -214.1067
  21   2.0000      -7.816070      -212.6861
  22   2.0000      -7.815425      -212.6685
  23   2.0000      -6.591960      -179.3764
  24   2.0000      -6.591552      -179.3653
  25   2.0000      -5.817490      -158.3020
  26   2.0000      -5.815145      -158.2381
  27   2.0000      -5.814528      -158.2213
  28   2.0000      -5.812091      -158.1550
  29   2.0000      -5.807595      -158.0327
  30   2.0000      -5.805425      -157.9737
  31   2.0000      -5.763674      -156.8375
  32   2.0000      -5.763052      -156.8206
  33   2.0000      -5.756491      -156.6421
  34   2.0000      -5.755982      -156.6282
  35   2.0000      -5.755626      -156.6185
  36   2.0000      -5.755515      -156.6155
  37   2.0000      -4.737338      -128.9095
  38   2.0000      -4.736970      -128.8995
  39   2.0000      -4.736969      -128.8995
  40   2.0000      -4.736412      -128.8843
  41   2.0000      -4.735752      -128.8664
  42   2.0000      -4.735439      -128.8578
  43   2.0000      -1.049675       -28.5631
  44   2.0000      -1.046807       -28.4851
  45   2.0000      -1.009397       -27.4671
  46   2.0000      -1.006610       -27.3913
  47   2.0000      -0.802858       -21.8469
  48   2.0000      -0.757274       -20.6065
  49   2.0000      -0.747394       -20.3376
  50   2.0000      -0.728364       -19.8198
  51   2.0000      -0.727389       -19.7933
  52   2.0000      -0.709169       -19.2975
  53   2.0000      -0.685907       -18.6645
  54   2.0000      -0.670262       -18.2388
  55   2.0000      -0.630765       -17.1640
  56   2.0000      -0.624368       -16.9899
  57   2.0000      -0.605320       -16.4716
  58   2.0000      -0.600678       -16.3453
  59   2.0000      -0.589936       -16.0530
  60   2.0000      -0.526230       -14.3194
  61   2.0000      -0.520590       -14.1660
  62   2.0000      -0.493772       -13.4362
  63   2.0000      -0.488110       -13.2822
  64   2.0000      -0.473977       -12.8976
  65   2.0000      -0.457948       -12.4614
  66   2.0000      -0.456143       -12.4123
  67   2.0000      -0.454176       -12.3588
  68   2.0000      -0.443679       -12.0731
  69   2.0000      -0.429658       -11.6916
  70   2.0000      -0.423764       -11.5312
  71   2.0000      -0.412537       -11.2257
  72   2.0000      -0.409238       -11.1359
  73   2.0000      -0.403426       -10.9778
  74   2.0000      -0.395614       -10.7652
  75   2.0000      -0.390716       -10.6319
  76   2.0000      -0.383887       -10.4461
  77   2.0000      -0.369128       -10.0445
  78   2.0000      -0.365654        -9.9499
  79   2.0000      -0.363427        -9.8893
  80   2.0000      -0.360569        -9.8116
  81   2.0000      -0.359711        -9.7882
  82   2.0000      -0.353186        -9.6107
  83   2.0000      -0.351018        -9.5517
  84   2.0000      -0.347859        -9.4657
  85   2.0000      -0.334714        -9.1080
  86   2.0000      -0.316714        -8.6182
  87   2.0000      -0.310890        -8.4597
  88   2.0000      -0.309791        -8.4298
  89   2.0000      -0.302932        -8.2432
  90   2.0000      -0.296218        -8.0605
  91   2.0000      -0.292699        -7.9647
  92   2.0000      -0.285499        -7.7688
  93   2.0000      -0.278149        -7.5688
  94   2.0000      -0.271475        -7.3872
  95   2.0000      -0.244789        -6.6611
  96   2.0000      -0.230259        -6.2657
  97   2.0000      -0.227439        -6.1889
  98   2.0000      -0.220534        -6.0010
  99   2.0000      -0.214301        -5.8314
 100   2.0000      -0.211002        -5.7416
 101   0.0000      -0.048056        -1.3077
 102   0.0000      -0.025538        -0.6949
 103   0.0000      -0.001263        -0.0344
 104   0.0000      -0.000524        -0.0143
 105   0.0000       0.010739         0.2922

MULLIKEN ATOMIC CHARGES
-----------------------
   0 C :   -0.442931
   1 C :   -0.145721
   2 O :   -0.309912
   3 P :    0.703524
   4 S :   -0.484095
   5 O :   -0.252046
   6 C :   -0.151592
   7 C :   -0.445598
   8 S :   -0.139099
   9 C :   -0.238297
  10 S :   -0.122257
  11 P :    0.677851
  12 S :   -0.478282
  13 O :   -0.297414
  14 C :   -0.155226
  15 C :   -0.445431
  16 O :   -0.257173
  17 C :   -0.119605
  18 C :   -0.478089
  19 H :    0.152700
  20 H :    0.145095
  21 H :    0.178519
  22 H :    0.150426
  23 H :    0.154200
  24 H :    0.174428
  25 H :    0.159965
  26 H :    0.165822
  27 H :    0.146007
  28 H :    0.151868
  29 H :    0.208971
  30 H :    0.208855
  31 H :    0.173094
  32 H :    0.147475
  33 H :    0.173230
  34 H :    0.147840
  35 H :    0.155418
  36 H :    0.146950
  37 H :    0.156489
  38 H :    0.176308
  39 H :    0.166886
  40 H :    0.140850
Sum of atomic charges:    0.0000000

LOEWDIN ATOMIC CHARGES
----------------------
   0 C :   -0.402281
   1 C :    0.022910
   2 O :   -0.655120
   3 P :    0.382405
   4 S :   -0.131360
   5 O :   -0.662704
   6 C :    0.011798
   7 C :   -0.397731
   8 S :    0.162040
   9 C :   -0.418885
  10 S :    0.182835
  11 P :    0.379803
  12 S :   -0.129963
  13 O :   -0.660832
  14 C :    0.018375
  15 C :   -0.406726
  16 O :   -0.668804
  17 C :    0.027710
  18 C :   -0.401829
  19 H :    0.159482
  20 H :    0.157700
  21 H :    0.168916
  22 H :    0.179794
  23 H :    0.174890
  24 H :    0.182209
  25 H :    0.181241
  26 H :    0.164400
  27 H :    0.159132
  28 H :    0.158273
  29 H :    0.189219
  30 H :    0.190518
  31 H :    0.179726
  32 H :    0.179101
  33 H :    0.164434
  34 H :    0.159100
  35 H :    0.160303
  36 H :    0.176156
  37 H :    0.177012
  38 H :    0.166186
  39 H :    0.164952
  40 H :    0.155617

  Mayer bond orders larger than 0.100000
B(  0-C ,  1-C ) :   0.9561 B(  0-C , 19-H ) :   0.9734 B(  0-C , 20-H ) :   0.9650
B(  0-C , 21-H ) :   0.9545 B(  1-C ,  2-O ) :   0.7936 B(  1-C , 22-H ) :   0.9617
B(  1-C , 23-H ) :   0.9610 B(  2-O ,  3-P ) :   1.0872 B(  3-P ,  4-S ) :   1.7469
B(  3-P ,  5-O ) :   1.1373 B(  3-P ,  8-S ) :   1.0582 B(  5-O ,  6-C ) :   0.7669
B(  6-C ,  7-C ) :   0.9296 B(  6-C , 24-H ) :   0.9585 B(  6-C , 25-H ) :   0.9634
B(  7-C , 26-H ) :   0.9626 B(  7-C , 27-H ) :   0.9656 B(  7-C , 28-H ) :   0.9750
B(  8-S ,  9-C ) :   0.9009 B(  9-C , 10-S ) :   0.8951 B(  9-C , 29-H ) :   0.9122
B(  9-C , 30-H ) :   0.9083 B( 10-S , 11-P ) :   1.0936 B( 11-P , 12-S ) :   1.7468
B( 11-P , 13-O ) :   1.0646 B( 11-P , 16-O ) :   1.1628 B( 13-O , 14-C ) :   0.8179
B( 14-C , 15-C ) :   0.9225 B( 14-C , 31-H ) :   0.9676 B( 14-C , 32-H ) :   0.9587
B( 15-C , 33-H ) :   0.9633 B( 15-C , 34-H ) :   0.9594 B( 15-C , 35-H ) :   0.9682
B( 16-O , 17-C ) :   0.7597 B( 17-C , 18-C ) :   0.9466 B( 17-C , 36-H ) :   0.9603
B( 17-C , 37-H ) :   0.9638 B( 18-C , 38-H ) :   0.9641 B( 18-C , 39-H ) :   0.9684
B( 18-C , 40-H ) :   0.9637

Dispersion correction           -0.022095406
FINAL SINGLE POINT ENERGY     -2932.463551941110

DIPOLE MOMENT
-------------

Method             : SCF
Type of density    : Electron Density
Multiplicity       :   1
Irrep              :   0
Energy             : -2932.4879042766169732 Eh
Relativity type    :
Basis              : AO
                                X                 Y                 Z
Electronic contribution:     -4.357771529       7.749749438      -6.138585977
Nuclear contribution   :      4.183831370      -8.385435365       6.665390232
                        -----------------------------------------
Total Dipole Moment    :     -0.173940159      -0.635685927       0.526804255
                        -----------------------------------------
Magnitude (a.u.)       :      0.843726555
Magnitude (Debye)      :      2.144582470

Rotational constants in cm-1:             0.013131             0.005098             0.004933
Rotational constants in MHz :           393.643113           152.822002           147.877623

                             ****ORCA TERMINATED NORMALLY****
TOTAL RUN TIME: 0 days 0 hours 1 minutes 22 seconds 20 msec
