                         Program Version 6.0.0  -   RELEASE  -
|  1> ! r2scan-3c def2/J RI DEFGRID2 scfconv6 printgap
|  2> %output
|  3>     printlevel normal
|  4> end
|  5> %cpcm
|  6>     smd true
|  7>     smdsolvent "water"
|  8> end
|  9> * xyz 0 1
| 10> C 5.0114201816 -1.2770055873 -1.5705416672
| 11> C 3.6051905044 -1.8200574359 -1.7368430968
| 12> O 2.8399852552 -1.6955016252 -0.5221344741
| 13> P 2.0593529511 -0.3801626035 -0.0989336328
| 14> S 3.1012608546 1.2449868888 0.26283127
| 15> O 1.2409729229 -0.9585942353 1.1236422634
| 16> C 1.4350743554 -0.514635397 2.4777399908
| 17> C 2.6269838088 -1.209701009 3.1017968881
| 18> S 0.6104885541 -0.2024908333 -1.6370305586
| 19> C 0.106434847 1.4954130509 -1.2661403512
| 20> S -0.6054537246 1.6843426454 0.3946593953
| 21> P -2.250610969 0.396049955 0.1164024089
| 22> S -3.0611992214 0.2943774293 -1.6687978384
| 23> O -3.2745454829 0.7947648312 1.2682898733
| 24> C -4.3091282469 1.7757468501 1.0767515114
| 25> C -3.7464046078 3.1745109893 0.9285793762
| 26> O -1.645094104 -0.938986245 0.7146745426
| 27> C -2.2292217397 -2.2399603692 0.4773506084
| 28> C -1.3704978969 -3.0248025406 -0.494724662
| 29> H 5.5129391847 -1.7813938433 -0.7491604131
| 30> H 5.5684912556 -1.4431009639 -2.4869620546
| 31> H 4.9851417196 -0.2102116031 -1.360119148
| 32> H 3.6163134936 -2.8939701806 -1.9330233466
| 33> H 3.0772666788 -1.3077193238 -2.5465570415
| 34> H 1.572063703 0.57223078 2.4811700372
| 35> H 0.5002728499 -0.7661311023 2.9811951555
| 36> H 3.5325189704 -0.9311900946 2.5642326102
| 37> H 2.7217755295 -0.9050182105 4.1391480853
| 38> H 2.5043086975 -2.2878899795 3.0478792529
| 39> H -0.6340777986 1.766311157 -2.0175604946
| 40> H 0.9737923674 2.1541428779 -1.3014900476
| 41> H -4.8876047626 1.4976705344 0.189860027
| 42> H -4.9280278919 1.6814302691 1.9699309944
| 43> H -3.1825819611 3.2525777356 -0.0001823557
| 44> H -4.56242016 3.8896181974 0.9058532454
| 45> H -3.0846590218 3.406128891 1.7594606078
| 46> H -2.2649196797 -2.7188155048 1.4572261625
| 47> H -3.2451962584 -2.1156860716 0.0911944782
| 48> H -1.3898666322 -2.556612518 -1.4769140405
| 49> H -0.3418919126 -3.0501480304 -0.142050552
| 50> H -1.7516016123 -4.0377572524 -0.5743489668
| 51> *
| 52>
| 53>                          ****END OF INPUT****

CARTESIAN COORDINATES (ANGSTROEM)
---------------------------------
  C      5.011420   -1.277006   -1.570542
  C      3.605191   -1.820057   -1.736843
  O      2.839985   -1.695502   -0.522134
  P      2.059353   -0.380163   -0.098934
  S      3.101261    1.244987    0.262831
  O      1.240973   -0.958594    1.123642
  C      1.435074   -0.514635    2.477740
  C      2.626984   -1.209701    3.101797
  S      0.610489   -0.202491   -1.637031
  C      0.106435    1.495413   -1.266140
  S     -0.605454    1.684343    0.394659
  P     -2.250611    0.396050    0.116402
  S     -3.061199    0.294377   -1.668798
  O     -3.274545    0.794765    1.268290
  C     -4.309128    1.775747    1.076752
  C     -3.746405    3.174511    0.928579
  O     -1.645094   -0.938986    0.714675
  C     -2.229222   -2.239960    0.477351
  C     -1.370498   -3.024803   -0.494725
  H      5.512939   -1.781394   -0.749160
  H      5.568491   -1.443101   -2.486962
  H      4.985142   -0.210212   -1.360119
  H      3.616313   -2.893970   -1.933023
  H      3.077267   -1.307719   -2.546557
  H      1.572064    0.572231    2.481170
  H      0.500273   -0.766131    2.981195
  H      3.532519   -0.931190    2.564233
  H      2.721776   -0.905018    4.139148
  H      2.504309   -2.287890    3.047879
  H     -0.634078    1.766311   -2.017560
  H      0.973792    2.154143   -1.301490
  H     -4.887605    1.497671    0.189860
  H     -4.928028    1.681430    1.969931
  H     -3.182582    3.252578   -0.000182
  H     -4.562420    3.889618    0.905853
  H     -3.084659    3.406129    1.759461
  H     -2.264920   -2.718816    1.457226
  H     -3.245196   -2.115686    0.091194
  H     -1.389867   -2.556613   -1.476914
  H     -0.341892   -3.050148   -0.142051
  H     -1.751602   -4.037757   -0.574349

 Total Charge           Charge          ....    0
 Multiplicity           Mult            ....    1
 Number of Electrons    NEL             ....  202
 Basis Dimension        Dim             ....  539

ORBITAL ENERGIES
----------------

  NO   OCC          E(Eh)            E(eV)
   0   2.0000     -88.579349     -2410.3666
   1   2.0000     -88.577310     -2410.3111
   2   2.0000     -88.527785     -2408.9635
   3   2.0000     -88.527580     -2408.9579
   4   2.0000     -76.919063     -2093.0741
   5   2.0000     -76.918068     -2093.0470
   6   2.0000     -18.996141      -516.9113
   7   2.0000     -18.993927      -516.8510
   8   2.0000     -18.991005      -516.7715
   9   2.0000     -18.988520      -516.7039
  10   2.0000     -10.105176      -274.9758
  11   2.0000     -10.091804      -274.6119
  12   2.0000     -10.088908      -274.5331
  13   2.0000     -10.088501      -274.5221
  14   2.0000     -10.087776      -274.5023
  15   2.0000     -10.018163      -272.6081
  16   2.0000     -10.017390      -272.5870
  17   2.0000     -10.016666      -272.5673
  18   2.0000     -10.015692      -272.5408
  19   2.0000      -7.873762      -214.2560
  20   2.0000      -7.871695      -214.1997
  21   2.0000      -7.822837      -212.8702
  22   2.0000      -7.822731      -212.8673
  23   2.0000      -6.597469      -179.5262
  24   2.0000      -6.596605      -179.5028
  25   2.0000      -5.820661      -158.3882
  26   2.0000      -5.818553      -158.3309
  27   2.0000      -5.817688      -158.3073
  28   2.0000      -5.815503      -158.2479
  29   2.0000      -5.810778      -158.1193
  30   2.0000      -5.808862      -158.0672
  31   2.0000      -5.770395      -157.0204
  32   2.0000      -5.770309      -157.0181
  33   2.0000      -5.763242      -156.8258
  34   2.0000      -5.762933      -156.8174
  35   2.0000      -5.762818      -156.8143
  36   2.0000      -5.762762      -156.8127
  37   2.0000      -4.742818      -129.0586
  38   2.0000      -4.742490      -129.0497
  39   2.0000      -4.741987      -129.0360
  40   2.0000      -4.741478      -129.0222
  41   2.0000      -4.741296      -129.0172
  42   2.0000      -4.740537      -128.9966
  43   2.0000      -1.053416       -28.6649
  44   2.0000      -1.049894       -28.5691
  45   2.0000      -1.012657       -27.5558
  46   2.0000      -1.009279       -27.4639
  47   2.0000      -0.804617       -21.8947
  48   2.0000      -0.755603       -20.5610
  49   2.0000      -0.743048       -20.2194
  50   2.0000      -0.721681       -19.6379
  51   2.0000      -0.721054       -19.6209
  52   2.0000      -0.709317       -19.3015
  53   2.0000      -0.689557       -18.7638
  54   2.0000      -0.675535       -18.3822
  55   2.0000      -0.630590       -17.1592
  56   2.0000      -0.621965       -16.9245
  57   2.0000      -0.600735       -16.3468
  58   2.0000      -0.595854       -16.2140
  59   2.0000      -0.588442       -16.0123
  60   2.0000      -0.523528       -14.2459
  61   2.0000      -0.518010       -14.0958
  62   2.0000      -0.492652       -13.4057
  63   2.0000      -0.485781       -13.2188
  64   2.0000      -0.474475       -12.9111
  65   2.0000      -0.456186       -12.4134
  66   2.0000      -0.452980       -12.3262
  67   2.0000      -0.452471       -12.3124
  68   2.0000      -0.440268       -11.9803
  69   2.0000      -0.426722       -11.6117
  70   2.0000      -0.421600       -11.4723
  71   2.0000      -0.411704       -11.2030
  72   2.0000      -0.407820       -11.0973
  73   2.0000      -0.402004       -10.9391
  74   2.0000      -0.393666       -10.7122
  75   2.0000      -0.388671       -10.5763
  76   2.0000      -0.382009       -10.3950
  77   2.0000      -0.366850        -9.9825
  78   2.0000      -0.362202        -9.8560
  79   2.0000      -0.358577        -9.7574
  80   2.0000      -0.353801        -9.6274
  81   2.0000      -0.353114        -9.6087
  82   2.0000      -0.347614        -9.4591
  83   2.0000      -0.346913        -9.4400
  84   2.0000      -0.345901        -9.4125
  85   2.0000      -0.333960        -9.0875
  86   2.0000      -0.315739        -8.5917
  87   2.0000      -0.306311        -8.3351
  88   2.0000      -0.305244        -8.3061
  89   2.0000      -0.302727        -8.2376
  90   2.0000      -0.296572        -8.0701
  91   2.0000      -0.293020        -7.9735
  92   2.0000      -0.286327        -7.7913
  93   2.0000      -0.279180        -7.5969
  94   2.0000      -0.273856        -7.4520
  95   2.0000      -0.248291        -6.7564
  96   2.0000      -0.235571        -6.4102
  97   2.0000      -0.234357        -6.3772
  98   2.0000      -0.226857        -6.1731
  99   2.0000      -0.221132        -6.0173
 100   2.0000      -0.217411        -5.9161
 101   0.0000      -0.052365        -1.4249
 102   0.0000      -0.031220        -0.8495
 103   0.0000      -0.005726        -0.1558
 104   0.0000      -0.004216        -0.1147
 105   0.0000       0.009935         0.2704

MULLIKEN ATOMIC CHARGES
-----------------------
   0 C :   -0.486716
   1 C :   -0.131998
   2 O :   -0.341935
   3 P :    0.731260
   4 S :   -0.523399
   5 O :   -0.283704
   6 C :   -0.139584
   7 C :   -0.488166
   8 S :   -0.148365
   9 C :   -0.250393
  10 S :   -0.132049
  11 P :    0.713589
  12 S :   -0.521794
  13 O :   -0.326101
  14 C :   -0.154878
  15 C :   -0.482370
  16 O :   -0.285282
  17 C :   -0.126594
  18 C :   -0.500411
  19 H :    0.168055
  20 H :    0.169880
  21 H :    0.169378
  22 H :    0.176581
  23 H :    0.164112
  24 H :    0.175562
  25 H :    0.179872
  26 H :    0.164466
  27 H :    0.170890
  28 H :    0.167507
  29 H :    0.232413
  30 H :    0.229759
  31 H :    0.177488
  32 H :    0.174099
  33 H :    0.171211
  34 H :    0.172340
  35 H :    0.168580
  36 H :    0.174072
  37 H :    0.169173
  38 H :    0.170506
  39 H :    0.166237
  40 H :    0.166708
Sum of atomic charges:    0.0000000

LOEWDIN ATOMIC CHARGES
----------------------
   0 C :   -0.406804
   1 C :    0.029563
   2 O :   -0.669216
   3 P :    0.386294
   4 S :   -0.156645
   5 O :   -0.680237
   6 C :    0.015022
   7 C :   -0.401149
   8 S :    0.159121
   9 C :   -0.412135
  10 S :    0.178180
  11 P :    0.385157
  12 S :   -0.156299
  13 O :   -0.673447
  14 C :    0.023600
  15 C :   -0.409962
  16 O :   -0.684597
  17 C :    0.031517
  18 C :   -0.404042
  19 H :    0.162710
  20 H :    0.167255
  21 H :    0.162916
  22 H :    0.191159
  23 H :    0.179632
  24 H :    0.182638
  25 H :    0.189244
  26 H :    0.161791
  27 H :    0.168292
  28 H :    0.162945
  29 H :    0.196800
  30 H :    0.196949
  31 H :    0.181149
  32 H :    0.190321
  33 H :    0.161216
  34 H :    0.168043
  35 H :    0.163455
  36 H :    0.187302
  37 H :    0.181366
  38 H :    0.162261
  39 H :    0.163597
  40 H :    0.165037

  Mayer bond orders larger than 0.100000
B(  0-C ,  1-C ) :   0.9414 B(  0-C , 19-H ) :   0.9721 B(  0-C , 20-H ) :   0.9593
B(  0-C , 21-H ) :   0.9592 B(  1-C ,  2-O ) :   0.7844 B(  1-C , 22-H ) :   0.9523
B(  1-C , 23-H ) :   0.9544 B(  2-O ,  3-P ) :   1.0904 B(  3-P ,  4-S ) :   1.7188
B(  3-P ,  5-O ) :   1.1371 B(  3-P ,  8-S ) :   1.0725 B(  5-O ,  6-C ) :   0.7553
B(  6-C ,  7-C ) :   0.9246 B(  6-C , 24-H ) :   0.9540 B(  6-C , 25-H ) :   0.9533
B(  7-C , 26-H ) :   0.9633 B(  7-C , 27-H ) :   0.9596 B(  7-C , 28-H ) :   0.9724
B(  8-S ,  9-C ) :   0.8922 B(  9-C , 10-S ) :   0.8866 B(  9-C , 29-H ) :   0.9058
B(  9-C , 30-H ) :   0.9030 B( 10-S , 11-P ) :   1.1047 B( 11-P , 12-S ) :   1.7090
B( 11-P , 13-O ) :   1.0717 B( 11-P , 16-O ) :   1.1666 B( 13-O , 14-C ) :   0.8062
B( 14-C , 15-C ) :   0.9110 B( 14-C , 31-H ) :   0.9656 B( 14-C , 32-H ) :   0.9490
B( 15-C , 33-H ) :   0.9638 B( 15-C , 34-H ) :   0.9540 B( 15-C , 35-H ) :   0.9657
B( 16-O , 17-C ) :   0.7470 B( 17-C , 18-C ) :   0.9372 B( 17-C , 36-H ) :   0.9499
B( 17-C , 37-H ) :   0.9605 B( 18-C , 38-H ) :   0.9661 B( 18-C , 39-H ) :   0.9669
B( 18-C , 40-H ) :   0.9594

Dispersion correction           -0.022095406
FINAL SINGLE POINT ENERGY     -2932.470340192984

DIPOLE MOMENT
-------------

Method             : SCF
Type of density    : Electron Density
Multiplicity       :   1
Irrep              :   0
Energy             : -2932.4946925284912140 Eh
Relativity type    :
Basis              : AO
                                X                 Y                 Z
Electronic contribution:     -4.515883894       7.618468325      -6.069892012
Nuclear contribution   :      4.183831370      -8.385435365       6.665390232
                        -----------------------------------------
Total Dipole Moment    :     -0.332052525      -0.766967040       0.595498219
                        -----------------------------------------
Magnitude (a.u.)       :      1.026214134
Magnitude (Debye)      :      2.608429033

Rotational constants in cm-1:             0.013131             0.005098             0.004933
Rotational constants in MHz :           393.643113           152.822002           147.877623

                             ****ORCA TERMINATED NORMALLY****
TOTAL RUN TIME: 0 days 0 hours 1 minutes 59 seconds 298 msec
