                         Program Version 6.0.0  -   RELEASE  -
|  1> ! pbe def2-sv(p) def2/J RI DEFGRID1 loosescf d4 GCP(DFT/SV(P)) printgap
|  2> %output
|  3>     printlevel normal
|  4> end
|  5> * xyz 0 1
|  6> C 3.7187759845 -2.3787258949 -0.8782068499
|  7> C 3.8782841369 -1.4848333802 0.3365211402
|  8> O 3.3945902502 -0.1502679298 0.1159976211
|  9> P 1.8782752251 0.2708318299 -0.1510724237
| 10> S 1.2398399626 -0.0688699794 -1.9763199625
| 11> O 1.9540791766 1.7828782398 0.2934977073
| 12> C 1.9563676909 2.8739072588 -0.6433054427
| 13> C 3.3121280486 3.0194942126 -1.3015641332
| 14> S 0.8548267466 -0.4959928839 1.5469930876
| 15> C 0.1404767168 -2.0521652966 0.932704087
| 16> S -1.116874315 -1.8848637911 -0.382644045
| 17> P -2.0751694094 -0.1000195842 0.1807873177
| 18> S -1.2992297958 1.6931332887 -0.0791051653
| 19> O -2.4488871587 -0.4777161658 1.6675505845
| 20> C -2.717018912 0.4821650078 2.7140521708
| 21> C -2.021094902 0.0230248907 3.9794850784
| 22> O -3.4780694509 -0.2353748476 -0.5600904276
| 23> C -3.7084229242 0.2790208714 -1.8814697844
| 24> C -2.8985038506 -0.4627998934 -2.9256356187
| 25> H 2.6677317994 -2.4958387918 -1.1379534112
| 26> H 4.228410545 -1.9437867035 -1.7341526308
| 27> H 4.1447157239 -3.3538764367 -0.6646506325
| 28> H 4.9324475831 -1.3364457085 0.5789724935
| 29> H 3.361364606 -1.9006100505 1.2075592173
| 30> H 1.171421681 2.7032010178 -1.3879196713
| 31> H 1.6940399944 3.7438317555 -0.0396271347
| 32> H 3.3034958846 3.8828730123 -1.9590703677
| 33> H 4.082789264 3.1424833049 -0.5455059902
| 34> H 3.5313433089 2.1262881172 -1.8856618622
| 35> H -0.3253801869 -2.5076084021 1.8040833018
| 36> H 0.9115545189 -2.6995782624 0.5211318241
| 37> H -2.3560490738 1.4655311286 2.3930052773
| 38> H -3.8008204846 0.5191545806 2.8407753833
| 39> H -0.9449951501 -0.0093128797 3.8242536477
| 40> H -2.2463682169 0.7199116707 4.7801022697
| 41> H -2.3692782006 -0.9678019908 4.2557433328
| 42> H -4.7806610254 0.1473264859 -2.0317959605
| 43> H -3.4582168674 1.3452512599 -1.8862020415
| 44> H -3.0834178583 -1.5321602478 -2.8595323247
| 45> H -3.1699264588 -0.108268625 -3.9147300805
| 46> H -1.8330152756 -0.2841643018 -2.7714711839
| 47> *
| 48>
| 49>                          ****END OF INPUT****

CARTESIAN COORDINATES (ANGSTROEM)
---------------------------------
  C      3.718776   -2.378726   -0.878207
  C      3.878284   -1.484833    0.336521
  O      3.394590   -0.150268    0.115998
  P      1.878275    0.270832   -0.151072
  S      1.239840   -0.068870   -1.976320
  O      1.954079    1.782878    0.293498
  C      1.956368    2.873907   -0.643305
  C      3.312128    3.019494   -1.301564
  S      0.854827   -0.495993    1.546993
  C      0.140477   -2.052165    0.932704
  S     -1.116874   -1.884864   -0.382644
  P     -2.075169   -0.100020    0.180787
  S     -1.299230    1.693133   -0.079105
  O     -2.448887   -0.477716    1.667551
  C     -2.717019    0.482165    2.714052
  C     -2.021095    0.023025    3.979485
  O     -3.478069   -0.235375   -0.560090
  C     -3.708423    0.279021   -1.881470
  C     -2.898504   -0.462800   -2.925636
  H      2.667732   -2.495839   -1.137953
  H      4.228411   -1.943787   -1.734153
  H      4.144716   -3.353876   -0.664651
  H      4.932448   -1.336446    0.578972
  H      3.361365   -1.900610    1.207559
  H      1.171422    2.703201   -1.387920
  H      1.694040    3.743832   -0.039627
  H      3.303496    3.882873   -1.959070
  H      4.082789    3.142483   -0.545506
  H      3.531343    2.126288   -1.885662
  H     -0.325380   -2.507608    1.804083
  H      0.911555   -2.699578    0.521132
  H     -2.356049    1.465531    2.393005
  H     -3.800820    0.519155    2.840775
  H     -0.944995   -0.009313    3.824254
  H     -2.246368    0.719912    4.780102
  H     -2.369278   -0.967802    4.255743
  H     -4.780661    0.147326   -2.031796
  H     -3.458217    1.345251   -1.886202
  H     -3.083418   -1.532160   -2.859532
  H     -3.169926   -0.108269   -3.914730
  H     -1.833015   -0.284164   -2.771471

 Total Charge           Charge          ....    0
 Multiplicity           Mult            ....    1
 Number of Electrons    NEL             ....  202
 Basis Dimension        Dim             ....  334

ORBITAL ENERGIES
----------------

  NO   OCC          E(Eh)            E(eV)
   0   2.0000     -88.045640     -2395.8437
   1   2.0000     -88.035654     -2395.5719
   2   2.0000     -87.982178     -2394.1168
   3   2.0000     -87.978263     -2394.0102
   4   2.0000     -76.424455     -2079.6151
   5   2.0000     -76.421847     -2079.5442
   6   2.0000     -18.790182      -511.3069
   7   2.0000     -18.786215      -511.1989
   8   2.0000     -18.785442      -511.1779
   9   2.0000     -18.785401      -511.1767
  10   2.0000      -9.963373      -271.1172
  11   2.0000      -9.955296      -270.8974
  12   2.0000      -9.947579      -270.6874
  13   2.0000      -9.944114      -270.5931
  14   2.0000      -9.942555      -270.5507
  15   2.0000      -9.885375      -268.9947
  16   2.0000      -9.884941      -268.9829
  17   2.0000      -9.877484      -268.7800
  18   2.0000      -9.876544      -268.7544
  19   2.0000      -7.689956      -209.2544
  20   2.0000      -7.681165      -209.0151
  21   2.0000      -7.626843      -207.5369
  22   2.0000      -7.622817      -207.4274
  23   2.0000      -6.421193      -174.7295
  24   2.0000      -6.419008      -174.6701
  25   2.0000      -5.717925      -155.5926
  26   2.0000      -5.714539      -155.5005
  27   2.0000      -5.709416      -155.3611
  28   2.0000      -5.706771      -155.2891
  29   2.0000      -5.705664      -155.2590
  30   2.0000      -5.697633      -155.0405
  31   2.0000      -5.655856      -153.9037
  32   2.0000      -5.651682      -153.7901
  33   2.0000      -5.647871      -153.6864
  34   2.0000      -5.646532      -153.6499
  35   2.0000      -5.643467      -153.5665
  36   2.0000      -5.643051      -153.5552
  37   2.0000      -4.643586      -126.3584
  38   2.0000      -4.643218      -126.3484
  39   2.0000      -4.641707      -126.3073
  40   2.0000      -4.641658      -126.3059
  41   2.0000      -4.640889      -126.2850
  42   2.0000      -4.639337      -126.2428
  43   2.0000      -0.981375       -26.7046
  44   2.0000      -0.981037       -26.6954
  45   2.0000      -0.941047       -25.6072
  46   2.0000      -0.939109       -25.5545
  47   2.0000      -0.761824       -20.7303
  48   2.0000      -0.717503       -19.5242
  49   2.0000      -0.707419       -19.2499
  50   2.0000      -0.683267       -18.5926
  51   2.0000      -0.680976       -18.5303
  52   2.0000      -0.667837       -18.1728
  53   2.0000      -0.650922       -17.7125
  54   2.0000      -0.635935       -17.3047
  55   2.0000      -0.596954       -16.2439
  56   2.0000      -0.588406       -16.0113
  57   2.0000      -0.571637       -15.5550
  58   2.0000      -0.567750       -15.4493
  59   2.0000      -0.559818       -15.2334
  60   2.0000      -0.498968       -13.5776
  61   2.0000      -0.494044       -13.4436
  62   2.0000      -0.468495       -12.7484
  63   2.0000      -0.465966       -12.6796
  64   2.0000      -0.458079       -12.4650
  65   2.0000      -0.436205       -11.8697
  66   2.0000      -0.434413       -11.8210
  67   2.0000      -0.430611       -11.7175
  68   2.0000      -0.424486       -11.5509
  69   2.0000      -0.414518       -11.2796
  70   2.0000      -0.409876       -11.1533
  71   2.0000      -0.393886       -10.7182
  72   2.0000      -0.388401       -10.5689
  73   2.0000      -0.384912       -10.4740
  74   2.0000      -0.382235       -10.4012
  75   2.0000      -0.374122       -10.1804
  76   2.0000      -0.366352        -9.9689
  77   2.0000      -0.355116        -9.6632
  78   2.0000      -0.351614        -9.5679
  79   2.0000      -0.347925        -9.4675
  80   2.0000      -0.345615        -9.4047
  81   2.0000      -0.339685        -9.2433
  82   2.0000      -0.338865        -9.2210
  83   2.0000      -0.335867        -9.1394
  84   2.0000      -0.328763        -8.9461
  85   2.0000      -0.317737        -8.6461
  86   2.0000      -0.305136        -8.3032
  87   2.0000      -0.292870        -7.9694
  88   2.0000      -0.291160        -7.9229
  89   2.0000      -0.282130        -7.6772
  90   2.0000      -0.278906        -7.5894
  91   2.0000      -0.270958        -7.3731
  92   2.0000      -0.269389        -7.3305
  93   2.0000      -0.256958        -6.9922
  94   2.0000      -0.255669        -6.9571
  95   2.0000      -0.241582        -6.5738
  96   2.0000      -0.223016        -6.0686
  97   2.0000      -0.209978        -5.7138
  98   2.0000      -0.187943        -5.1142
  99   2.0000      -0.186332        -5.0704
 100   2.0000      -0.180414        -4.9093
 101   0.0000      -0.053809        -1.4642
 102   0.0000      -0.034086        -0.9275
 103   0.0000      -0.014356        -0.3906
 104   0.0000       0.007539         0.2051
 105   0.0000       0.016261         0.4425

MULLIKEN ATOMIC CHARGES
-----------------------
   0 C :   -0.313290
   1 C :   -0.010816
   2 O :   -0.367090
   3 P :    0.627006
   4 S :   -0.296616
   5 O :   -0.367405
   6 C :   -0.011418
   7 C :   -0.292220
   8 S :   -0.114461
   9 C :   -0.319354
  10 S :   -0.088275
  11 P :    0.612856
  12 S :   -0.325069
  13 O :   -0.375815
  14 C :    0.000013
  15 C :   -0.298357
  16 O :   -0.371090
  17 C :    0.002868
  18 C :   -0.341052
  19 H :    0.128296
  20 H :    0.122533
  21 H :    0.106947
  22 H :    0.107461
  23 H :    0.098409
  24 H :    0.124193
  25 H :    0.103263
  26 H :    0.107805
  27 H :    0.111624
  28 H :    0.120220
  29 H :    0.185797
  30 H :    0.181921
  31 H :    0.109290
  32 H :    0.103801
  33 H :    0.127027
  34 H :    0.110180
  35 H :    0.111692
  36 H :    0.101374
  37 H :    0.108349
  38 H :    0.117738
  39 H :    0.111893
  40 H :    0.149771
Sum of atomic charges:    0.0000000

LOEWDIN ATOMIC CHARGES
----------------------
   0 C :   -0.368907
   1 C :   -0.117387
   2 O :   -0.249268
   3 P :    0.565429
   4 S :   -0.294519
   5 O :   -0.234320
   6 C :   -0.118912
   7 C :   -0.362305
   8 S :    0.095174
   9 C :   -0.466719
  10 S :    0.091889
  11 P :    0.563690
  12 S :   -0.309344
  13 O :   -0.246215
  14 C :   -0.116075
  15 C :   -0.356416
  16 O :   -0.248307
  17 C :   -0.121123
  18 C :   -0.374084
  19 H :    0.116621
  20 H :    0.130888
  21 H :    0.127387
  22 H :    0.121100
  23 H :    0.100318
  24 H :    0.110080
  25 H :    0.118420
  26 H :    0.128650
  27 H :    0.124297
  28 H :    0.122290
  29 H :    0.136606
  30 H :    0.128698
  31 H :    0.107566
  32 H :    0.115263
  33 H :    0.121104
  34 H :    0.130318
  35 H :    0.123529
  36 H :    0.116918
  37 H :    0.108443
  38 H :    0.123088
  39 H :    0.131077
  40 H :    0.125059

  Mayer bond orders larger than 0.100000
B(  0-C ,  1-C ) :   1.1554 B(  0-C , 19-H ) :   0.9263 B(  0-C , 20-H ) :   0.9433
B(  0-C , 21-H ) :   0.9370 B(  1-C ,  2-O ) :   0.9330 B(  1-C , 22-H ) :   0.9352
B(  1-C , 23-H ) :   0.9178 B(  2-O ,  3-P ) :   1.0928 B(  3-P ,  4-S ) :   1.6330
B(  3-P ,  5-O ) :   1.1400 B(  3-P ,  8-S ) :   0.9070 B(  4-S ,  8-S ) :   0.1198
B(  5-O ,  6-C ) :   0.8956 B(  6-C ,  7-C ) :   1.1621 B(  6-C , 24-H ) :   0.9095
B(  6-C , 25-H ) :   0.9348 B(  7-C , 26-H ) :   0.9404 B(  7-C , 27-H ) :   0.9466
B(  7-C , 28-H ) :   0.9370 B(  8-S ,  9-C ) :   1.0099 B(  9-C , 10-S ) :   0.9879
B(  9-C , 29-H ) :   0.9076 B(  9-C , 30-H ) :   0.9029 B( 10-S , 11-P ) :   0.9816
B( 10-S , 12-S ) :   0.1150 B( 11-P , 12-S ) :   1.5934 B( 11-P , 13-O ) :   1.1191
B( 11-P , 16-O ) :   1.1115 B( 13-O , 14-C ) :   0.8947 B( 14-C , 15-C ) :   1.1629
B( 14-C , 31-H ) :   0.9009 B( 14-C , 32-H ) :   0.9342 B( 15-C , 33-H ) :   0.9428
B( 15-C , 34-H ) :   0.9411 B( 15-C , 35-H ) :   0.9503 B( 16-O , 17-C ) :   0.9113
B( 17-C , 18-C ) :   1.1634 B( 17-C , 36-H ) :   0.9329 B( 17-C , 37-H ) :   0.9126
B( 18-C , 38-H ) :   0.9433 B( 18-C , 39-H ) :   0.9377 B( 18-C , 40-H ) :   0.9264

Dispersion correction           -0.069226086
FINAL SINGLE POINT ENERGY     -2929.510149552713

DIPOLE MOMENT
-------------

Method             : SCF
Type of density    : Electron Density
Multiplicity       :   1
Irrep              :   0
Energy             : -2929.6241705479110351 Eh
Relativity type    :
Basis              : AO
                                X                 Y                 Z
Electronic contribution:     -5.292191416      -0.999161620       1.186352599
Nuclear contribution   :      5.487831280       0.498713879      -0.553057599
                        -----------------------------------------
Total Dipole Moment    :      0.195639864      -0.500447741       0.633295000
                        -----------------------------------------
Magnitude (a.u.)       :      0.830533235
Magnitude (Debye)      :      2.111047716

Rotational constants in cm-1:             0.010780             0.005977             0.005672
Rotational constants in MHz :           323.182505           179.179703           170.041478

                             ****ORCA TERMINATED NORMALLY****
TOTAL RUN TIME: 0 days 0 hours 0 minutes 24 seconds 348 msec
