                         Program Version 6.0.0  -   RELEASE  -
|  1> ! r2scan-3c def2/J RI DEFGRID2 scfconv6 printgap
|  2> %output
|  3>     printlevel normal
|  4> end
|  5> * xyz 0 1
|  6> C 2.401076014 -2.8366692209 1.7344316097
|  7> C 1.5489767173 -1.975162841 0.8232986842
|  8> O 2.0010797363 -0.614901066 0.9214942938
|  9> P 2.3752750096 0.3163114317 -0.3161847114
| 10> S 2.9814892732 -0.6285212147 -1.9142761591
| 11> O 3.4824567159 1.2711124535 0.261983788
| 12> C 3.2948679901 2.2702217203 1.294086219
| 13> C 3.3847347393 1.6662794719 2.679629505
| 14> S 0.7015324439 1.6336378002 -0.5721371732
| 15> C -0.0434443065 0.7878233721 -1.9793246866
| 16> S -0.6987421918 -0.8518748549 -1.5560538891
| 17> P -2.1682012848 -0.1825148128 -0.1973672677
| 18> S -3.0842239791 1.4994032807 -0.6294224393
| 19> O -1.3786578877 -0.2364189633 1.1699912214
| 20> C -1.797140586 0.4923384728 2.349915044
| 21> C -0.5668469534 1.0617440414 3.0253287595
| 22> O -3.1306113429 -1.4374011183 -0.0427924193
| 23> C -4.1865708617 -1.7228307004 -0.9823239714
| 24> C -5.260052068 -2.5087564861 -0.2564262352
| 25> H 2.3454474211 -2.4737957747 2.7566908067
| 26> H 2.0400324578 -3.8592167974 1.6952254277
| 27> H 3.4370899647 -2.8109090115 1.4060473901
| 28> H 0.4980229103 -1.9872918449 1.1239153143
| 29> H 1.6297746444 -2.3072636745 -0.2173591196
| 30> H 4.1024070904 2.9819719794 1.1140427179
| 31> H 2.330979801 2.7610997612 1.132964244
| 32> H 2.5813581916 0.9516114455 2.8323395344
| 33> H 4.3368110199 1.1573985357 2.8024560486
| 34> H 3.3034663868 2.4588838788 3.416789961
| 35> H 0.7054849705 0.6271707443 -2.7543360014
| 36> H -0.85523594 1.4251022185 -2.3285796108
| 37> H -2.487854855 1.2861770483 2.0467607214
| 38> H -2.3192749343 -0.2177314086 2.9944345871
| 39> H -0.8633710798 1.5665761672 3.9388558983
| 40> H 0.1278652577 0.2613914374 3.2647217652
| 41> H -0.0754468632 1.7730162806 2.3658941963
| 42> H -4.5771739819 -0.7751777219 -1.3684363647
| 43> H -3.7572767284 -2.2979448151 -1.806506624
| 44> H -4.8368606738 -3.4202771642 0.1554071154
| 45> H -5.6756518727 -1.9150413653 0.5529454951
| 46> H -6.0495905822 -2.7621897562 -0.9561808045
| 47> *
| 48>
| 49>                          ****END OF INPUT****

CARTESIAN COORDINATES (ANGSTROEM)
---------------------------------
  C      2.401076   -2.836669    1.734432
  C      1.548977   -1.975163    0.823299
  O      2.001080   -0.614901    0.921494
  P      2.375275    0.316311   -0.316185
  S      2.981489   -0.628521   -1.914276
  O      3.482457    1.271112    0.261984
  C      3.294868    2.270222    1.294086
  C      3.384735    1.666279    2.679630
  S      0.701532    1.633638   -0.572137
  C     -0.043444    0.787823   -1.979325
  S     -0.698742   -0.851875   -1.556054
  P     -2.168201   -0.182515   -0.197367
  S     -3.084224    1.499403   -0.629422
  O     -1.378658   -0.236419    1.169991
  C     -1.797141    0.492338    2.349915
  C     -0.566847    1.061744    3.025329
  O     -3.130611   -1.437401   -0.042792
  C     -4.186571   -1.722831   -0.982324
  C     -5.260052   -2.508756   -0.256426
  H      2.345447   -2.473796    2.756691
  H      2.040032   -3.859217    1.695225
  H      3.437090   -2.810909    1.406047
  H      0.498023   -1.987292    1.123915
  H      1.629775   -2.307264   -0.217359
  H      4.102407    2.981972    1.114043
  H      2.330980    2.761100    1.132964
  H      2.581358    0.951611    2.832340
  H      4.336811    1.157399    2.802456
  H      3.303466    2.458884    3.416790
  H      0.705485    0.627171   -2.754336
  H     -0.855236    1.425102   -2.328580
  H     -2.487855    1.286177    2.046761
  H     -2.319275   -0.217731    2.994435
  H     -0.863371    1.566576    3.938856
  H      0.127865    0.261391    3.264722
  H     -0.075447    1.773016    2.365894
  H     -4.577174   -0.775178   -1.368436
  H     -3.757277   -2.297945   -1.806507
  H     -4.836861   -3.420277    0.155407
  H     -5.675652   -1.915041    0.552945
  H     -6.049591   -2.762190   -0.956181

 Total Charge           Charge          ....    0
 Multiplicity           Mult            ....    1
 Number of Electrons    NEL             ....  202
 Basis Dimension        Dim             ....  539

ORBITAL ENERGIES
----------------

  NO   OCC          E(Eh)            E(eV)
   0   2.0000     -88.578131     -2410.3335
   1   2.0000     -88.572776     -2410.1878
   2   2.0000     -88.523220     -2408.8393
   3   2.0000     -88.519087     -2408.7268
   4   2.0000     -76.916257     -2092.9978
   5   2.0000     -76.914446     -2092.9485
   6   2.0000     -18.994642      -516.8705
   7   2.0000     -18.993799      -516.8476
   8   2.0000     -18.993499      -516.8394
   9   2.0000     -18.988331      -516.6987
  10   2.0000     -10.109105      -275.0827
  11   2.0000     -10.105491      -274.9844
  12   2.0000     -10.101913      -274.8870
  13   2.0000     -10.100413      -274.8462
  14   2.0000     -10.090219      -274.5688
  15   2.0000     -10.035613      -273.0829
  16   2.0000     -10.035078      -273.0683
  17   2.0000     -10.034781      -273.0603
  18   2.0000     -10.027648      -272.8662
  19   2.0000      -7.872387      -214.2185
  20   2.0000      -7.867178      -214.0768
  21   2.0000      -7.818024      -212.7393
  22   2.0000      -7.813966      -212.6288
  23   2.0000      -6.594892      -179.4561
  24   2.0000      -6.592567      -179.3929
  25   2.0000      -5.819272      -158.3505
  26   2.0000      -5.816206      -158.2670
  27   2.0000      -5.814076      -158.2090
  28   2.0000      -5.811030      -158.1262
  29   2.0000      -5.809558      -158.0861
  30   2.0000      -5.804246      -157.9416
  31   2.0000      -5.765574      -156.8892
  32   2.0000      -5.761740      -156.7849
  33   2.0000      -5.758306      -156.6915
  34   2.0000      -5.758104      -156.6860
  35   2.0000      -5.754261      -156.5814
  36   2.0000      -5.753797      -156.5688
  37   2.0000      -4.740322      -128.9907
  38   2.0000      -4.739833      -128.9774
  39   2.0000      -4.738632      -128.9447
  40   2.0000      -4.738353      -128.9371
  41   2.0000      -4.737384      -128.9108
  42   2.0000      -4.736187      -128.8782
  43   2.0000      -1.052541       -28.6411
  44   2.0000      -1.049337       -28.5539
  45   2.0000      -1.013053       -27.5666
  46   2.0000      -1.009607       -27.4728
  47   2.0000      -0.803236       -21.8572
  48   2.0000      -0.763412       -20.7735
  49   2.0000      -0.755422       -20.5561
  50   2.0000      -0.736544       -20.0424
  51   2.0000      -0.734717       -19.9927
  52   2.0000      -0.708860       -19.2891
  53   2.0000      -0.684621       -18.6295
  54   2.0000      -0.671176       -18.2636
  55   2.0000      -0.630389       -17.1538
  56   2.0000      -0.624523       -16.9941
  57   2.0000      -0.606830       -16.5127
  58   2.0000      -0.604695       -16.4546
  59   2.0000      -0.592879       -16.1331
  60   2.0000      -0.538279       -14.6473
  61   2.0000      -0.524958       -14.2848
  62   2.0000      -0.503582       -13.7032
  63   2.0000      -0.501722       -13.6526
  64   2.0000      -0.474662       -12.9162
  65   2.0000      -0.465777       -12.6744
  66   2.0000      -0.462304       -12.5799
  67   2.0000      -0.455249       -12.3880
  68   2.0000      -0.448760       -12.2114
  69   2.0000      -0.432365       -11.7653
  70   2.0000      -0.422540       -11.4979
  71   2.0000      -0.413758       -11.2589
  72   2.0000      -0.407555       -11.0901
  73   2.0000      -0.403131       -10.9698
  74   2.0000      -0.397893       -10.8272
  75   2.0000      -0.391836       -10.6624
  76   2.0000      -0.384779       -10.4704
  77   2.0000      -0.376283       -10.2392
  78   2.0000      -0.371717       -10.1149
  79   2.0000      -0.370934       -10.0936
  80   2.0000      -0.367750       -10.0070
  81   2.0000      -0.364279        -9.9125
  82   2.0000      -0.361173        -9.8280
  83   2.0000      -0.357446        -9.7266
  84   2.0000      -0.352028        -9.5792
  85   2.0000      -0.331860        -9.0304
  86   2.0000      -0.326884        -8.8950
  87   2.0000      -0.317791        -8.6475
  88   2.0000      -0.313197        -8.5225
  89   2.0000      -0.305922        -8.3246
  90   2.0000      -0.303466        -8.2577
  91   2.0000      -0.295799        -8.0491
  92   2.0000      -0.291206        -7.9241
  93   2.0000      -0.280546        -7.6341
  94   2.0000      -0.270066        -7.3489
  95   2.0000      -0.248872        -6.7721
  96   2.0000      -0.228891        -6.2285
  97   2.0000      -0.226811        -6.1718
  98   2.0000      -0.221668        -6.0319
  99   2.0000      -0.213954        -5.8220
 100   2.0000      -0.212647        -5.7864
 101   0.0000      -0.049299        -1.3415
 102   0.0000      -0.028179        -0.7668
 103   0.0000      -0.003396        -0.0924
 104   0.0000       0.002819         0.0767
 105   0.0000       0.007177         0.1953

MULLIKEN ATOMIC CHARGES
-----------------------
   0 C :   -0.483134
   1 C :   -0.120716
   2 O :   -0.239062
   3 P :    0.664964
   4 S :   -0.452590
   5 O :   -0.284213
   6 C :   -0.148451
   7 C :   -0.427488
   8 S :   -0.177570
   9 C :   -0.235407
  10 S :   -0.141298
  11 P :    0.705191
  12 S :   -0.491458
  13 O :   -0.260000
  14 C :   -0.133392
  15 C :   -0.463423
  16 O :   -0.290688
  17 C :   -0.144628
  18 C :   -0.444736
  19 H :    0.147244
  20 H :    0.146742
  21 H :    0.162868
  22 H :    0.168481
  23 H :    0.174655
  24 H :    0.158005
  25 H :    0.150506
  26 H :    0.161592
  27 H :    0.156942
  28 H :    0.149381
  29 H :    0.212119
  30 H :    0.214554
  31 H :    0.170766
  32 H :    0.149530
  33 H :    0.146515
  34 H :    0.154753
  35 H :    0.164510
  36 H :    0.170140
  37 H :    0.151089
  38 H :    0.153364
  39 H :    0.156759
  40 H :    0.147583
Sum of atomic charges:    0.0000000

LOEWDIN ATOMIC CHARGES
----------------------
   0 C :   -0.390135
   1 C :    0.004858
   2 O :   -0.673134
   3 P :    0.394366
   4 S :   -0.100110
   5 O :   -0.650204
   6 C :    0.027680
   7 C :   -0.396205
   8 S :    0.129347
   9 C :   -0.422484
  10 S :    0.168227
  11 P :    0.371400
  12 S :   -0.136289
  13 O :   -0.676106
  14 C :    0.026046
  15 C :   -0.394370
  16 O :   -0.664148
  17 C :    0.020918
  18 C :   -0.386193
  19 H :    0.155924
  20 H :    0.159353
  21 H :    0.162236
  22 H :    0.182073
  23 H :    0.183617
  24 H :    0.183833
  25 H :    0.174558
  26 H :    0.167365
  27 H :    0.163024
  28 H :    0.159623
  29 H :    0.191996
  30 H :    0.191263
  31 H :    0.183659
  32 H :    0.172640
  33 H :    0.158787
  34 H :    0.159942
  35 H :    0.163146
  36 H :    0.181288
  37 H :    0.171863
  38 H :    0.159483
  39 H :    0.160564
  40 H :    0.160299

  Mayer bond orders larger than 0.100000
B(  0-C ,  1-C ) :   0.9412 B(  0-C , 19-H ) :   0.9778 B(  0-C , 20-H ) :   0.9673
B(  0-C , 21-H ) :   0.9739 B(  1-C ,  2-O ) :   0.7262 B(  1-C , 22-H ) :   0.9489
B(  1-C , 23-H ) :   0.9455 B(  2-O ,  3-P ) :   1.0415 B(  3-P ,  4-S ) :   1.8355
B(  3-P ,  5-O ) :   1.1919 B(  3-P ,  8-S ) :   0.9778 B(  5-O ,  6-C ) :   0.7699
B(  6-C ,  7-C ) :   0.9428 B(  6-C , 24-H ) :   0.9641 B(  6-C , 25-H ) :   0.9642
B(  7-C , 26-H ) :   0.9565 B(  7-C , 27-H ) :   0.9678 B(  7-C , 28-H ) :   0.9665
B(  8-S ,  9-C ) :   0.9160 B(  9-C , 10-S ) :   0.8958 B(  9-C , 29-H ) :   0.9077
B(  9-C , 30-H ) :   0.9106 B( 10-S , 11-P ) :   1.0713 B( 11-P , 12-S ) :   1.7359
B( 11-P , 13-O ) :   1.1716 B( 11-P , 16-O ) :   1.0846 B( 13-O , 14-C ) :   0.7664
B( 14-C , 15-C ) :   0.9599 B( 14-C , 31-H ) :   0.9554 B( 14-C , 32-H ) :   0.9501
B( 15-C , 33-H ) :   0.9630 B( 15-C , 34-H ) :   0.9671 B( 15-C , 35-H ) :   0.9670
B( 16-O , 17-C ) :   0.7739 B( 17-C , 18-C ) :   0.9588 B( 17-C , 36-H ) :   0.9524
B( 17-C , 37-H ) :   0.9460 B( 18-C , 38-H ) :   0.9719 B( 18-C , 39-H ) :   0.9719
B( 18-C , 40-H ) :   0.9645

Dispersion correction           -0.021754927
FINAL SINGLE POINT ENERGY     -2932.462228852613

DIPOLE MOMENT
-------------

Method             : SCF
Type of density    : Electron Density
Multiplicity       :   1
Irrep              :   0
Energy             : -2932.4870362960068633 Eh
Relativity type    :
Basis              : AO
                                X                 Y                 Z
Electronic contribution:      3.311946092       6.927432030     -21.661015715
Nuclear contribution   :     -3.975736217      -7.290460636      23.302144247
                        -----------------------------------------
Total Dipole Moment    :     -0.663790125      -0.363028606       1.641128532
                        -----------------------------------------
Magnitude (a.u.)       :      1.807127544
Magnitude (Debye)      :      4.593353176

Rotational constants in cm-1:             0.011925             0.005138             0.004925
Rotational constants in MHz :           357.513587           154.022872           147.651021

                             ****ORCA TERMINATED NORMALLY****
TOTAL RUN TIME: 0 days 0 hours 1 minutes 22 seconds 580 msec
