                         Program Version 6.0.0  -   RELEASE  -
|  1> ! r2scan-3c def2/J RI DEFGRID2 scfconv6 printgap
|  2> %output
|  3>     printlevel normal
|  4> end
|  5> %cpcm
|  6>     smd true
|  7>     smdsolvent "water"
|  8> end
|  9> * xyz 0 1
| 10> C 2.401076014 -2.8366692209 1.7344316097
| 11> C 1.5489767173 -1.975162841 0.8232986842
| 12> O 2.0010797363 -0.614901066 0.9214942938
| 13> P 2.3752750096 0.3163114317 -0.3161847114
| 14> S 2.9814892732 -0.6285212147 -1.9142761591
| 15> O 3.4824567159 1.2711124535 0.261983788
| 16> C 3.2948679901 2.2702217203 1.294086219
| 17> C 3.3847347393 1.6662794719 2.679629505
| 18> S 0.7015324439 1.6336378002 -0.5721371732
| 19> C -0.0434443065 0.7878233721 -1.9793246866
| 20> S -0.6987421918 -0.8518748549 -1.5560538891
| 21> P -2.1682012848 -0.1825148128 -0.1973672677
| 22> S -3.0842239791 1.4994032807 -0.6294224393
| 23> O -1.3786578877 -0.2364189633 1.1699912214
| 24> C -1.797140586 0.4923384728 2.349915044
| 25> C -0.5668469534 1.0617440414 3.0253287595
| 26> O -3.1306113429 -1.4374011183 -0.0427924193
| 27> C -4.1865708617 -1.7228307004 -0.9823239714
| 28> C -5.260052068 -2.5087564861 -0.2564262352
| 29> H 2.3454474211 -2.4737957747 2.7566908067
| 30> H 2.0400324578 -3.8592167974 1.6952254277
| 31> H 3.4370899647 -2.8109090115 1.4060473901
| 32> H 0.4980229103 -1.9872918449 1.1239153143
| 33> H 1.6297746444 -2.3072636745 -0.2173591196
| 34> H 4.1024070904 2.9819719794 1.1140427179
| 35> H 2.330979801 2.7610997612 1.132964244
| 36> H 2.5813581916 0.9516114455 2.8323395344
| 37> H 4.3368110199 1.1573985357 2.8024560486
| 38> H 3.3034663868 2.4588838788 3.416789961
| 39> H 0.7054849705 0.6271707443 -2.7543360014
| 40> H -0.85523594 1.4251022185 -2.3285796108
| 41> H -2.487854855 1.2861770483 2.0467607214
| 42> H -2.3192749343 -0.2177314086 2.9944345871
| 43> H -0.8633710798 1.5665761672 3.9388558983
| 44> H 0.1278652577 0.2613914374 3.2647217652
| 45> H -0.0754468632 1.7730162806 2.3658941963
| 46> H -4.5771739819 -0.7751777219 -1.3684363647
| 47> H -3.7572767284 -2.2979448151 -1.806506624
| 48> H -4.8368606738 -3.4202771642 0.1554071154
| 49> H -5.6756518727 -1.9150413653 0.5529454951
| 50> H -6.0495905822 -2.7621897562 -0.9561808045
| 51> *
| 52>
| 53>                          ****END OF INPUT****

CARTESIAN COORDINATES (ANGSTROEM)
---------------------------------
  C      2.401076   -2.836669    1.734432
  C      1.548977   -1.975163    0.823299
  O      2.001080   -0.614901    0.921494
  P      2.375275    0.316311   -0.316185
  S      2.981489   -0.628521   -1.914276
  O      3.482457    1.271112    0.261984
  C      3.294868    2.270222    1.294086
  C      3.384735    1.666279    2.679630
  S      0.701532    1.633638   -0.572137
  C     -0.043444    0.787823   -1.979325
  S     -0.698742   -0.851875   -1.556054
  P     -2.168201   -0.182515   -0.197367
  S     -3.084224    1.499403   -0.629422
  O     -1.378658   -0.236419    1.169991
  C     -1.797141    0.492338    2.349915
  C     -0.566847    1.061744    3.025329
  O     -3.130611   -1.437401   -0.042792
  C     -4.186571   -1.722831   -0.982324
  C     -5.260052   -2.508756   -0.256426
  H      2.345447   -2.473796    2.756691
  H      2.040032   -3.859217    1.695225
  H      3.437090   -2.810909    1.406047
  H      0.498023   -1.987292    1.123915
  H      1.629775   -2.307264   -0.217359
  H      4.102407    2.981972    1.114043
  H      2.330980    2.761100    1.132964
  H      2.581358    0.951611    2.832340
  H      4.336811    1.157399    2.802456
  H      3.303466    2.458884    3.416790
  H      0.705485    0.627171   -2.754336
  H     -0.855236    1.425102   -2.328580
  H     -2.487855    1.286177    2.046761
  H     -2.319275   -0.217731    2.994435
  H     -0.863371    1.566576    3.938856
  H      0.127865    0.261391    3.264722
  H     -0.075447    1.773016    2.365894
  H     -4.577174   -0.775178   -1.368436
  H     -3.757277   -2.297945   -1.806507
  H     -4.836861   -3.420277    0.155407
  H     -5.675652   -1.915041    0.552945
  H     -6.049591   -2.762190   -0.956181

 Total Charge           Charge          ....    0
 Multiplicity           Mult            ....    1
 Number of Electrons    NEL             ....  202
 Basis Dimension        Dim             ....  539

ORBITAL ENERGIES
----------------

  NO   OCC          E(Eh)            E(eV)
   0   2.0000     -88.580946     -2410.4101
   1   2.0000     -88.577321     -2410.3114
   2   2.0000     -88.530805     -2409.0457
   3   2.0000     -88.528772     -2408.9904
   4   2.0000     -76.921955     -2093.1528
   5   2.0000     -76.919262     -2093.0795
   6   2.0000     -18.997215      -516.9405
   7   2.0000     -18.994970      -516.8794
   8   2.0000     -18.992899      -516.8231
   9   2.0000     -18.992678      -516.8170
  10   2.0000     -10.105262      -274.9782
  11   2.0000     -10.096377      -274.7364
  12   2.0000     -10.089539      -274.5503
  13   2.0000     -10.089398      -274.5465
  14   2.0000     -10.086234      -274.4604
  15   2.0000     -10.019401      -272.6418
  16   2.0000     -10.019160      -272.6352
  17   2.0000     -10.018204      -272.6092
  18   2.0000     -10.017391      -272.5871
  19   2.0000      -7.875265      -214.2969
  20   2.0000      -7.871670      -214.1990
  21   2.0000      -7.826037      -212.9573
  22   2.0000      -7.823862      -212.8981
  23   2.0000      -6.600132      -179.5987
  24   2.0000      -6.597902      -179.5381
  25   2.0000      -5.822126      -158.4281
  26   2.0000      -5.819079      -158.3452
  27   2.0000      -5.818561      -158.3311
  28   2.0000      -5.815505      -158.2479
  29   2.0000      -5.812465      -158.1652
  30   2.0000      -5.808773      -158.0647
  31   2.0000      -5.773693      -157.1102
  32   2.0000      -5.771348      -157.0464
  33   2.0000      -5.766324      -156.9097
  34   2.0000      -5.765924      -156.8988
  35   2.0000      -5.764140      -156.8502
  36   2.0000      -5.763958      -156.8453
  37   2.0000      -4.745881      -129.1420
  38   2.0000      -4.744919      -129.1158
  39   2.0000      -4.743859      -129.0870
  40   2.0000      -4.743275      -129.0711
  41   2.0000      -4.742840      -129.0592
  42   2.0000      -4.741741      -129.0293
  43   2.0000      -1.053148       -28.6576
  44   2.0000      -1.051903       -28.6237
  45   2.0000      -1.013009       -27.5654
  46   2.0000      -1.011610       -27.5273
  47   2.0000      -0.805337       -21.9143
  48   2.0000      -0.758793       -20.6478
  49   2.0000      -0.747702       -20.3460
  50   2.0000      -0.726845       -19.7785
  51   2.0000      -0.723689       -19.6926
  52   2.0000      -0.707734       -19.2584
  53   2.0000      -0.688025       -18.7221
  54   2.0000      -0.676736       -18.4149
  55   2.0000      -0.626900       -17.0588
  56   2.0000      -0.619023       -16.8445
  57   2.0000      -0.599965       -16.3259
  58   2.0000      -0.596011       -16.2183
  59   2.0000      -0.588414       -16.0116
  60   2.0000      -0.533336       -14.5128
  61   2.0000      -0.521986       -14.2039
  62   2.0000      -0.499378       -13.5888
  63   2.0000      -0.497217       -13.5300
  64   2.0000      -0.474527       -12.9125
  65   2.0000      -0.460664       -12.5353
  66   2.0000      -0.455521       -12.3954
  67   2.0000      -0.445917       -12.1340
  68   2.0000      -0.443821       -12.0770
  69   2.0000      -0.431726       -11.7479
  70   2.0000      -0.419310       -11.4100
  71   2.0000      -0.408868       -11.1259
  72   2.0000      -0.404313       -11.0019
  73   2.0000      -0.399604       -10.8738
  74   2.0000      -0.390465       -10.6251
  75   2.0000      -0.387228       -10.5370
  76   2.0000      -0.382306       -10.4031
  77   2.0000      -0.366065        -9.9611
  78   2.0000      -0.363187        -9.8828
  79   2.0000      -0.361312        -9.8318
  80   2.0000      -0.357048        -9.7158
  81   2.0000      -0.356083        -9.6895
  82   2.0000      -0.351367        -9.5612
  83   2.0000      -0.347037        -9.4434
  84   2.0000      -0.344934        -9.3861
  85   2.0000      -0.328388        -8.9359
  86   2.0000      -0.320746        -8.7279
  87   2.0000      -0.311930        -8.4880
  88   2.0000      -0.309258        -8.4153
  89   2.0000      -0.303621        -8.2619
  90   2.0000      -0.300501        -8.1770
  91   2.0000      -0.291719        -7.9381
  92   2.0000      -0.290220        -7.8973
  93   2.0000      -0.278954        -7.5907
  94   2.0000      -0.271817        -7.3965
  95   2.0000      -0.251668        -6.8482
  96   2.0000      -0.238687        -6.4950
  97   2.0000      -0.234630        -6.3846
  98   2.0000      -0.228821        -6.2265
  99   2.0000      -0.223449        -6.0804
 100   2.0000      -0.220359        -5.9963
 101   0.0000      -0.053901        -1.4667
 102   0.0000      -0.034219        -0.9312
 103   0.0000      -0.005306        -0.1444
 104   0.0000      -0.002317        -0.0630
 105   0.0000       0.007086         0.1928

MULLIKEN ATOMIC CHARGES
-----------------------
   0 C :   -0.524745
   1 C :   -0.096293
   2 O :   -0.263394
   3 P :    0.675971
   4 S :   -0.505056
   5 O :   -0.321854
   6 C :   -0.125888
   7 C :   -0.474957
   8 S :   -0.185342
   9 C :   -0.244536
  10 S :   -0.152115
  11 P :    0.734588
  12 S :   -0.537299
  13 O :   -0.282106
  14 C :   -0.123358
  15 C :   -0.509173
  16 O :   -0.316383
  17 C :   -0.138798
  18 C :   -0.485131
  19 H :    0.167014
  20 H :    0.169149
  21 H :    0.166691
  22 H :    0.177733
  23 H :    0.172494
  24 H :    0.180961
  25 H :    0.163009
  26 H :    0.168470
  27 H :    0.168417
  28 H :    0.174265
  29 H :    0.229698
  30 H :    0.236416
  31 H :    0.170094
  32 H :    0.173488
  33 H :    0.169948
  34 H :    0.171888
  35 H :    0.172081
  36 H :    0.170373
  37 H :    0.172011
  38 H :    0.165805
  39 H :    0.166325
  40 H :    0.169540
Sum of atomic charges:    0.0000000

LOEWDIN ATOMIC CHARGES
----------------------
   0 C :   -0.393416
   1 C :    0.009676
   2 O :   -0.679648
   3 P :    0.393777
   4 S :   -0.141092
   5 O :   -0.671696
   6 C :    0.036115
   7 C :   -0.397814
   8 S :    0.130024
   9 C :   -0.418370
  10 S :    0.162606
  11 P :    0.376303
  12 S :   -0.166578
  13 O :   -0.684955
  14 C :    0.031139
  15 C :   -0.397092
  16 O :   -0.675454
  17 C :    0.025168
  18 C :   -0.390167
  19 H :    0.162508
  20 H :    0.167874
  21 H :    0.162163
  22 H :    0.186274
  23 H :    0.182614
  24 H :    0.193672
  25 H :    0.181255
  26 H :    0.167619
  27 H :    0.164878
  28 H :    0.170033
  29 H :    0.196919
  30 H :    0.197871
  31 H :    0.183447
  32 H :    0.182886
  33 H :    0.167976
  34 H :    0.164082
  35 H :    0.163303
  36 H :    0.181618
  37 H :    0.180176
  38 H :    0.163046
  39 H :    0.162469
  40 H :    0.168787

  Mayer bond orders larger than 0.100000
B(  0-C ,  1-C ) :   0.9390 B(  0-C , 19-H ) :   0.9731 B(  0-C , 20-H ) :   0.9610
B(  0-C , 21-H ) :   0.9722 B(  1-C ,  2-O ) :   0.7177 B(  1-C , 22-H ) :   0.9403
B(  1-C , 23-H ) :   0.9449 B(  2-O ,  3-P ) :   1.0440 B(  3-P ,  4-S ) :   1.8164
B(  3-P ,  5-O ) :   1.1976 B(  3-P ,  8-S ) :   0.9953 B(  5-O ,  6-C ) :   0.7621
B(  6-C ,  7-C ) :   0.9295 B(  6-C , 24-H ) :   0.9538 B(  6-C , 25-H ) :   0.9525
B(  7-C , 26-H ) :   0.9566 B(  7-C , 27-H ) :   0.9679 B(  7-C , 28-H ) :   0.9594
B(  8-S ,  9-C ) :   0.9006 B(  9-C , 10-S ) :   0.8875 B(  9-C , 29-H ) :   0.9033
B(  9-C , 30-H ) :   0.9043 B( 10-S , 11-P ) :   1.0809 B( 11-P , 12-S ) :   1.6990
B( 11-P , 13-O ) :   1.1837 B( 11-P , 16-O ) :   1.0915 B( 13-O , 14-C ) :   0.7565
B( 14-C , 15-C ) :   0.9483 B( 14-C , 31-H ) :   0.9535 B( 14-C , 32-H ) :   0.9396
B( 15-C , 33-H ) :   0.9571 B( 15-C , 34-H ) :   0.9647 B( 15-C , 35-H ) :   0.9646
B( 16-O , 17-C ) :   0.7662 B( 17-C , 18-C ) :   0.9543 B( 17-C , 36-H ) :   0.9499
B( 17-C , 37-H ) :   0.9376 B( 18-C , 38-H ) :   0.9689 B( 18-C , 39-H ) :   0.9694
B( 18-C , 40-H ) :   0.9589

Dispersion correction           -0.021754927
FINAL SINGLE POINT ENERGY     -2932.471829191715

DIPOLE MOMENT
-------------

Method             : SCF
Type of density    : Electron Density
Multiplicity       :   1
Irrep              :   0
Energy             : -2932.4966366351086435 Eh
Relativity type    :
Basis              : AO
                                X                 Y                 Z
Electronic contribution:      2.986787785       6.891199571     -21.124896866
Nuclear contribution   :     -3.975736217      -7.290460636      23.302144247
                        -----------------------------------------
Total Dipole Moment    :     -0.988948432      -0.399261065       2.177247380
                        -----------------------------------------
Magnitude (a.u.)       :      2.424424582
Magnitude (Debye)      :      6.162397554

Rotational constants in cm-1:             0.011925             0.005138             0.004925
Rotational constants in MHz :           357.513587           154.022872           147.651021

                             ****ORCA TERMINATED NORMALLY****
TOTAL RUN TIME: 0 days 0 hours 1 minutes 59 seconds 334 msec
