                         Program Version 6.0.1  -  RELEASE   -
|  1> ! pbe def2-sv(p) def2/J RI DEFGRID1 loosescf d4 GCP(DFT/SV(P)) printgap
|  2> %output
|  3>     printlevel normal
|  4> end
|  5> * xyz 0 1
|  6> C 3.7966139013 -3.6402961609 -0.2790656937
|  7> C 4.3601720011 -2.3766286537 -0.9090479243
|  8> O 3.3659059606 -1.7246548981 -1.7254306892
|  9> C 2.5169367828 -0.907260049 -1.1447772659
| 10> O 2.5224151516 -0.6262245855 0.0359861015
| 11> C 1.5289569336 -0.3219937311 -2.1322963964
| 12> C 0.3802458995 0.3269347238 -1.3718039088
| 13> H -0.2538804238 0.9065018373 -2.0501795704
| 14> C 0.9341308476 1.2856585178 -0.3280145704
| 15> O 1.7794800009 2.1070040745 -0.6008904862
| 16> O 0.3284489329 1.1728948956 0.8355123286
| 17> C 0.7486571322 2.0232985058 1.9217654933
| 18> C 1.6938549589 1.268022961 2.8400903173
| 19> S -0.6661586025 -0.9634959013 -0.6063703235
| 20> P -2.1441543765 0.29865391 0.1940907388
| 21> S -2.3958392388 2.1180288009 -0.4813022696
| 22> O -3.3656679518 -0.6923913715 -0.1615230108
| 23> C -4.7188336477 -0.2848990572 0.0765623535
| 24> O -2.0715011761 0.2826540434 1.7902953022
| 25> C -1.8083312053 -0.9383562172 2.5031878675
| 26> H 2.9799982907 -3.3893171497 0.3940675383
| 27> H 3.425384293 -4.3088193925 -1.0506007946
| 28> H 4.578250919 -4.1398653045 0.2835787902
| 29> H 5.1723854334 -2.6020379655 -1.5999019756
| 30> H 4.6962645577 -1.674717648 -0.1406822235
| 31> H 1.1732015958 -1.1003854898 -2.805631199
| 32> H 2.051550157 0.4409019778 -2.7140331723
| 33> H 1.2312684499 2.9050456367 1.4912411235
| 34> H -0.1749882241 2.3083745971 2.4288268937
| 35> H 2.532725554 0.884459928 2.2633632956
| 36> H 2.0611980293 1.9415633586 3.6069288001
| 37> H 1.1818417944 0.4326955422 3.3087116354
| 38> H -4.9121133172 0.6711386696 -0.4128026335
| 39> H -4.907214489 -0.1893818802 1.1463473921
| 40> H -5.3379201806 -1.0666892011 -0.3556625355
| 41> H -2.0705740969 -0.7316140262 3.5376735557
| 42> H -0.7517408498 -1.1900218941 2.4147545023
| 43> H -2.4128982078 -1.7532652876 2.104213034
| 44> *
| 45>
| 46>                          ****END OF INPUT****

CARTESIAN COORDINATES (ANGSTROEM)
---------------------------------
  C      3.796614   -3.640296   -0.279066
  C      4.360172   -2.376629   -0.909048
  O      3.365906   -1.724655   -1.725431
  C      2.516937   -0.907260   -1.144777
  O      2.522415   -0.626225    0.035986
  C      1.528957   -0.321994   -2.132296
  C      0.380246    0.326935   -1.371804
  H     -0.253880    0.906502   -2.050180
  C      0.934131    1.285659   -0.328015
  O      1.779480    2.107004   -0.600890
  O      0.328449    1.172895    0.835512
  C      0.748657    2.023299    1.921765
  C      1.693855    1.268023    2.840090
  S     -0.666159   -0.963496   -0.606370
  P     -2.144154    0.298654    0.194091
  S     -2.395839    2.118029   -0.481302
  O     -3.365668   -0.692391   -0.161523
  C     -4.718834   -0.284899    0.076562
  O     -2.071501    0.282654    1.790295
  C     -1.808331   -0.938356    2.503188
  H      2.979998   -3.389317    0.394068
  H      3.425384   -4.308819   -1.050601
  H      4.578251   -4.139865    0.283579
  H      5.172385   -2.602038   -1.599902
  H      4.696265   -1.674718   -0.140682
  H      1.173202   -1.100385   -2.805631
  H      2.051550    0.440902   -2.714033
  H      1.231268    2.905046    1.491241
  H     -0.174988    2.308375    2.428827
  H      2.532726    0.884460    2.263363
  H      2.061198    1.941563    3.606929
  H      1.181842    0.432696    3.308712
  H     -4.912113    0.671139   -0.412803
  H     -4.907214   -0.189382    1.146347
  H     -5.337920   -1.066689   -0.355663
  H     -2.070574   -0.731614    3.537674
  H     -0.751741   -1.190022    2.414755
  H     -2.412898   -1.753265    2.104213

 Total Charge           Charge          ....    0
 Multiplicity           Mult            ....    1
 Number of Electrons    NEL             ....  174
 Basis Dimension        Dim             ....  316

ORBITAL ENERGIES
----------------

  NO   OCC          E(Eh)            E(eV)
   0   2.0000     -88.036723     -2395.6010
   1   2.0000     -87.978523     -2394.0173
   2   2.0000     -76.420868     -2079.5175
   3   2.0000     -18.812443      -511.9126
   4   2.0000     -18.798205      -511.5252
   5   2.0000     -18.791216      -511.3350
   6   2.0000     -18.784587      -511.1546
   7   2.0000     -18.753330      -510.3040
   8   2.0000     -18.725707      -509.5524
   9   2.0000     -10.021201      -272.6907
  10   2.0000     -10.008042      -272.3327
  11   2.0000      -9.956429      -270.9282
  12   2.0000      -9.949429      -270.7377
  13   2.0000      -9.943981      -270.5895
  14   2.0000      -9.941122      -270.5117
  15   2.0000      -9.936064      -270.3740
  16   2.0000      -9.918941      -269.9081
  17   2.0000      -9.894210      -269.2351
  18   2.0000      -9.877505      -268.7806
  19   2.0000      -7.681808      -209.0326
  20   2.0000      -7.623839      -207.4552
  21   2.0000      -6.418221      -174.6487
  22   2.0000      -5.709668      -155.3680
  23   2.0000      -5.706708      -155.2874
  24   2.0000      -5.698361      -155.0603
  25   2.0000      -5.653088      -153.8283
  26   2.0000      -5.644602      -153.5974
  27   2.0000      -5.643472      -153.5667
  28   2.0000      -4.641119      -126.2913
  29   2.0000      -4.639915      -126.2585
  30   2.0000      -4.638598      -126.2227
  31   2.0000      -1.022512       -27.8240
  32   2.0000      -1.004562       -27.3355
  33   2.0000      -0.979313       -26.6485
  34   2.0000      -0.936767       -25.4907
  35   2.0000      -0.929531       -25.2938
  36   2.0000      -0.908154       -24.7121
  37   2.0000      -0.765119       -20.8199
  38   2.0000      -0.720192       -19.5974
  39   2.0000      -0.697448       -18.9785
  40   2.0000      -0.692526       -18.8446
  41   2.0000      -0.659020       -17.9328
  42   2.0000      -0.637297       -17.3417
  43   2.0000      -0.617094       -16.7920
  44   2.0000      -0.612234       -16.6597
  45   2.0000      -0.598219       -16.2784
  46   2.0000      -0.561510       -15.2795
  47   2.0000      -0.512712       -13.9516
  48   2.0000      -0.507464       -13.8088
  49   2.0000      -0.492861       -13.4114
  50   2.0000      -0.481671       -13.1069
  51   2.0000      -0.473456       -12.8834
  52   2.0000      -0.462932       -12.5970
  53   2.0000      -0.444860       -12.1052
  54   2.0000      -0.439995       -11.9729
  55   2.0000      -0.430593       -11.7170
  56   2.0000      -0.425885       -11.5889
  57   2.0000      -0.423501       -11.5241
  58   2.0000      -0.413401       -11.2492
  59   2.0000      -0.404977       -11.0200
  60   2.0000      -0.401609       -10.9283
  61   2.0000      -0.394479       -10.7343
  62   2.0000      -0.393266       -10.7013
  63   2.0000      -0.379405       -10.3241
  64   2.0000      -0.375049       -10.2056
  65   2.0000      -0.367516       -10.0006
  66   2.0000      -0.363650        -9.8954
  67   2.0000      -0.350356        -9.5337
  68   2.0000      -0.347985        -9.4692
  69   2.0000      -0.336141        -9.1469
  70   2.0000      -0.331424        -9.0185
  71   2.0000      -0.325666        -8.8618
  72   2.0000      -0.324777        -8.8376
  73   2.0000      -0.317569        -8.6415
  74   2.0000      -0.312455        -8.5023
  75   2.0000      -0.302974        -8.2443
  76   2.0000      -0.287601        -7.8260
  77   2.0000      -0.277907        -7.5622
  78   2.0000      -0.272724        -7.4212
  79   2.0000      -0.270952        -7.3730
  80   2.0000      -0.262104        -7.1322
  81   2.0000      -0.251388        -6.8406
  82   2.0000      -0.238182        -6.4813
  83   2.0000      -0.230510        -6.2725
  84   2.0000      -0.202969        -5.5231
  85   2.0000      -0.200488        -5.4555
  86   2.0000      -0.192866        -5.2482
  87   0.0000      -0.043239        -1.1766
  88   0.0000      -0.029130        -0.7927
  89   0.0000      -0.011837        -0.3221
  90   0.0000       0.007460         0.2030
  91   0.0000       0.027363         0.7446

MULLIKEN ATOMIC CHARGES
-----------------------
   0 C :   -0.306862
   1 C :   -0.013744
   2 O :   -0.223357
   3 C :    0.119585
   4 O :   -0.195165
   5 C :   -0.099768
   6 C :   -0.306580
   7 H :    0.154640
   8 C :    0.237575
   9 O :   -0.205200
  10 O :   -0.238998
  11 C :   -0.010417
  12 C :   -0.302805
  13 S :   -0.081316
  14 P :    0.635623
  15 S :   -0.328090
  16 O :   -0.392376
  17 C :   -0.104157
  18 O :   -0.380603
  19 C :   -0.126996
  20 H :    0.128494
  21 H :    0.117065
  22 H :    0.116337
  23 H :    0.107802
  24 H :    0.113214
  25 H :    0.129976
  26 H :    0.147665
  27 H :    0.112915
  28 H :    0.106986
  29 H :    0.132782
  30 H :    0.107150
  31 H :    0.107063
  32 H :    0.123282
  33 H :    0.107868
  34 H :    0.124401
  35 H :    0.129071
  36 H :    0.140007
  37 H :    0.116931
Sum of atomic charges:    0.0000000

LOEWDIN ATOMIC CHARGES
----------------------
   0 C :   -0.355794
   1 C :   -0.108584
   2 O :   -0.052245
   3 C :    0.040942
   4 O :   -0.150495
   5 C :   -0.248179
   6 C :   -0.263514
   7 H :    0.146204
   8 C :    0.017612
   9 O :   -0.168175
  10 O :   -0.055554
  11 C :   -0.107872
  12 C :   -0.354311
  13 S :    0.105395
  14 P :    0.582093
  15 S :   -0.317125
  16 O :   -0.273510
  17 C :   -0.215880
  18 O :   -0.251415
  19 C :   -0.219047
  20 H :    0.130993
  21 H :    0.126388
  22 H :    0.132298
  23 H :    0.120406
  24 H :    0.121783
  25 H :    0.143298
  26 H :    0.162148
  27 H :    0.121765
  28 H :    0.117871
  29 H :    0.133478
  30 H :    0.127553
  31 H :    0.119236
  32 H :    0.112793
  33 H :    0.108332
  34 H :    0.121372
  35 H :    0.124201
  36 H :    0.115626
  37 H :    0.109916

  Mayer bond orders larger than 0.100000
B(  0-C ,  1-C ) :   1.1736 B(  0-C , 20-H ) :   0.9457 B(  0-C , 21-H ) :   0.9484
B(  0-C , 22-H ) :   0.9438 B(  1-C ,  2-O ) :   0.9090 B(  1-C , 23-H ) :   0.9368
B(  1-C , 24-H ) :   0.9159 B(  2-O ,  3-C ) :   1.2556 B(  3-C ,  4-O ) :   1.9767
B(  3-C ,  5-C ) :   0.9968 B(  5-C ,  6-C ) :   1.0698 B(  5-C , 25-H ) :   0.9028
B(  5-C , 26-H ) :   0.8703 B(  6-C ,  7-H ) :   0.8550 B(  6-C ,  8-C ) :   0.8629
B(  6-C , 13-S ) :   1.0211 B(  8-C ,  9-O ) :   2.0591 B(  8-C , 10-O ) :   1.2233
B( 10-O , 11-C ) :   0.8975 B( 11-C , 12-C ) :   1.1775 B( 11-C , 27-H ) :   0.9112
B( 11-C , 28-H ) :   0.9297 B( 12-C , 29-H ) :   0.9391 B( 12-C , 30-H ) :   0.9443
B( 12-C , 31-H ) :   0.9492 B( 13-S , 14-P ) :   0.9659 B( 13-S , 15-S ) :   0.1090
B( 14-P , 15-S ) :   1.6374 B( 14-P , 16-O ) :   1.0648 B( 14-P , 18-O ) :   1.0753
B( 16-O , 17-C ) :   0.9345 B( 17-C , 32-H ) :   0.9376 B( 17-C , 33-H ) :   0.9492
B( 17-C , 34-H ) :   0.9592 B( 18-O , 19-C ) :   0.9269 B( 19-C , 35-H ) :   0.9584
B( 19-C , 36-H ) :   0.9359 B( 19-C , 37-H ) :   0.9406

Dispersion correction           -0.053150749
FINAL SINGLE POINT ENERGY     -1979.018663108998

DIPOLE MOMENT
-------------

Method             : SCF
Type of density    : Electron Density
Multiplicity       :   1
Irrep              :   0
Energy             : -1979.1491517862750698 Eh
Relativity type    :
Basis              : AO
                                X                 Y                 Z
Electronic contribution:    -11.343683354       9.426216456     -10.291639270
Nuclear contribution   :     11.670564609     -11.227374672      10.978171218
                        -----------------------------------------
Total Dipole Moment    :      0.326881255      -1.801158216       0.686531948
                        -----------------------------------------
Magnitude (a.u.)       :      1.955082707
Magnitude (Debye)      :      4.969425314

Rotational constants in cm-1:             0.015423             0.006364             0.005937
Rotational constants in MHz :           462.371168           190.781274           177.993823

                             ****ORCA TERMINATED NORMALLY****
TOTAL RUN TIME: 0 days 0 hours 0 minutes 29 seconds 657 msec
