                         Program Version 6.0.1  -  RELEASE   -
|  1> ! pbe def2-sv(p) def2/J RI DEFGRID1 loosescf d4 GCP(DFT/SV(P)) printgap
|  2> %output
|  3>     printlevel normal
|  4> end
|  5> * xyz 0 1
|  6> C 1.9327397657 -3.5420348087 -2.3455669766
|  7> C 3.1705867819 -2.928165623 -1.7111218579
|  8> O 2.8906629927 -1.59852281 -1.2355618485
|  9> C 2.3508264334 -1.4606046055 -0.0417053769
| 10> O 2.1445544003 -2.3651033748 0.7350179282
| 11> C 2.0143531644 -0.0076066192 0.2490708243
| 12> C 1.113448389 0.5483958777 -0.8573942124
| 13> H 1.6835029957 0.6762407535 -1.7796983407
| 14> C 0.493025296 1.8619354153 -0.4279545775
| 15> O -0.7091714594 1.983678468 -0.2749400106
| 16> O 1.3757036032 2.7947083622 -0.2373545013
| 17> C 0.9311658829 4.0664526342 0.2915138834
| 18> C 0.8487997551 4.0096867124 1.807788487
| 19> S -0.2509545843 -0.5912813201 -1.2843282625
| 20> P -1.5827988179 -0.2519450128 0.317855429
| 21> S -1.0843790703 0.3364650723 2.1328847905
| 22> O -2.958402771 0.3514103845 -0.2282572796
| 23> C -3.4466179474 1.6739847959 -0.0039884749
| 24> O -1.9921600126 -1.8073875656 0.3075410692
| 25> C -2.9591852489 -2.3321322737 1.2193680312
| 26> H 2.1796090377 -4.5186431781 -2.748157483
| 27> H 1.14738369 -3.6527535656 -1.6007348016
| 28> H 1.562960132 -2.9026335293 -3.1422582255
| 29> H 3.9684502667 -2.7936925584 -2.4412431003
| 30> H 3.5174167626 -3.5357069836 -0.8703928751
| 31> H 2.9331213533 0.5786877027 0.2903921762
| 32> H 1.5147846638 0.0313202578 1.2195242777
| 33> H 1.6884057213 4.7746976645 -0.0430728398
| 34> H -0.041842607 4.3060613476 -0.1438152544
| 35> H 0.1394806293 3.2453303348 2.1217279225
| 36> H 1.8209959916 3.7741227514 2.2309612588
| 37> H 0.5176465626 4.9709323032 2.1859558425
| 38> H -3.067624665 2.0579801165 0.9440473671
| 39> H -4.5307773696 1.5893585915 0.0229528654
| 40> H -3.1272973123 2.3217567982 -0.8173573066
| 41> H -2.8578730758 -3.4131953125 1.1665602832
| 42> H -3.960686033 -2.0237832539 0.920552667
| 43> H -2.7492873529 -1.9813218191 2.2323609365
| 44> *
| 45>
| 46>                          ****END OF INPUT****

CARTESIAN COORDINATES (ANGSTROEM)
---------------------------------
  C      1.932740   -3.542035   -2.345567
  C      3.170587   -2.928166   -1.711122
  O      2.890663   -1.598523   -1.235562
  C      2.350826   -1.460605   -0.041705
  O      2.144554   -2.365103    0.735018
  C      2.014353   -0.007607    0.249071
  C      1.113448    0.548396   -0.857394
  H      1.683503    0.676241   -1.779698
  C      0.493025    1.861935   -0.427955
  O     -0.709171    1.983678   -0.274940
  O      1.375704    2.794708   -0.237355
  C      0.931166    4.066453    0.291514
  C      0.848800    4.009687    1.807788
  S     -0.250955   -0.591281   -1.284328
  P     -1.582799   -0.251945    0.317855
  S     -1.084379    0.336465    2.132885
  O     -2.958403    0.351410   -0.228257
  C     -3.446618    1.673985   -0.003988
  O     -1.992160   -1.807388    0.307541
  C     -2.959185   -2.332132    1.219368
  H      2.179609   -4.518643   -2.748157
  H      1.147384   -3.652754   -1.600735
  H      1.562960   -2.902634   -3.142258
  H      3.968450   -2.793693   -2.441243
  H      3.517417   -3.535707   -0.870393
  H      2.933121    0.578688    0.290392
  H      1.514785    0.031320    1.219524
  H      1.688406    4.774698   -0.043073
  H     -0.041843    4.306061   -0.143815
  H      0.139481    3.245330    2.121728
  H      1.820996    3.774123    2.230961
  H      0.517647    4.970932    2.185956
  H     -3.067625    2.057980    0.944047
  H     -4.530777    1.589359    0.022953
  H     -3.127297    2.321757   -0.817357
  H     -2.857873   -3.413195    1.166560
  H     -3.960686   -2.023783    0.920553
  H     -2.749287   -1.981322    2.232361

 Total Charge           Charge          ....    0
 Multiplicity           Mult            ....    1
 Number of Electrons    NEL             ....  174
 Basis Dimension        Dim             ....  316

ORBITAL ENERGIES
----------------

  NO   OCC          E(Eh)            E(eV)
   0   2.0000     -88.035588     -2395.5701
   1   2.0000     -87.972723     -2393.8595
   2   2.0000     -76.418692     -2079.4583
   3   2.0000     -18.830603      -512.4068
   4   2.0000     -18.799645      -511.5643
   5   2.0000     -18.780923      -511.0549
   6   2.0000     -18.769375      -510.7406
   7   2.0000     -18.766827      -510.6713
   8   2.0000     -18.732558      -509.7388
   9   2.0000     -10.035318      -273.0749
  10   2.0000     -10.005577      -272.2656
  11   2.0000      -9.963781      -271.1283
  12   2.0000      -9.954038      -270.8632
  13   2.0000      -9.944934      -270.6154
  14   2.0000      -9.932544      -270.2783
  15   2.0000      -9.927854      -270.1506
  16   2.0000      -9.906022      -269.5566
  17   2.0000      -9.892136      -269.1787
  18   2.0000      -9.880212      -268.8542
  19   2.0000      -7.680481      -208.9965
  20   2.0000      -7.617695      -207.2880
  21   2.0000      -6.414413      -174.5451
  22   2.0000      -5.708756      -155.3431
  23   2.0000      -5.705183      -155.2459
  24   2.0000      -5.696805      -155.0179
  25   2.0000      -5.646807      -153.6574
  26   2.0000      -5.638559      -153.4330
  27   2.0000      -5.637368      -153.4006
  28   2.0000      -4.637035      -126.1801
  29   2.0000      -4.636436      -126.1638
  30   2.0000      -4.635044      -126.1259
  31   2.0000      -1.040717       -28.3193
  32   2.0000      -1.007352       -27.4115
  33   2.0000      -0.968945       -26.3663
  34   2.0000      -0.945537       -25.7294
  35   2.0000      -0.923664       -25.1342
  36   2.0000      -0.909775       -24.7562
  37   2.0000      -0.769128       -20.9290
  38   2.0000      -0.719098       -19.5676
  39   2.0000      -0.706210       -19.2170
  40   2.0000      -0.685524       -18.6541
  41   2.0000      -0.647995       -17.6328
  42   2.0000      -0.629553       -17.1310
  43   2.0000      -0.620232       -16.8774
  44   2.0000      -0.615675       -16.7534
  45   2.0000      -0.592754       -16.1297
  46   2.0000      -0.568586       -15.4720
  47   2.0000      -0.514028       -13.9874
  48   2.0000      -0.505633       -13.7590
  49   2.0000      -0.496019       -13.4974
  50   2.0000      -0.487122       -13.2553
  51   2.0000      -0.466430       -12.6922
  52   2.0000      -0.461569       -12.5599
  53   2.0000      -0.451892       -12.2966
  54   2.0000      -0.437537       -11.9060
  55   2.0000      -0.437103       -11.8942
  56   2.0000      -0.423541       -11.5251
  57   2.0000      -0.414172       -11.2702
  58   2.0000      -0.407009       -11.0753
  59   2.0000      -0.405965       -11.0469
  60   2.0000      -0.398888       -10.8543
  61   2.0000      -0.393001       -10.6941
  62   2.0000      -0.387439       -10.5428
  63   2.0000      -0.382443       -10.4068
  64   2.0000      -0.375269       -10.2116
  65   2.0000      -0.370656       -10.0861
  66   2.0000      -0.357004        -9.7146
  67   2.0000      -0.354521        -9.6470
  68   2.0000      -0.351157        -9.5555
  69   2.0000      -0.340703        -9.2710
  70   2.0000      -0.334734        -9.1086
  71   2.0000      -0.329784        -8.9739
  72   2.0000      -0.320855        -8.7309
  73   2.0000      -0.312670        -8.5082
  74   2.0000      -0.305055        -8.3010
  75   2.0000      -0.293357        -7.9827
  76   2.0000      -0.290743        -7.9115
  77   2.0000      -0.287190        -7.8148
  78   2.0000      -0.275984        -7.5099
  79   2.0000      -0.261551        -7.1172
  80   2.0000      -0.257914        -7.0182
  81   2.0000      -0.254952        -6.9376
  82   2.0000      -0.247004        -6.7213
  83   2.0000      -0.215601        -5.8668
  84   2.0000      -0.212608        -5.7854
  85   2.0000      -0.192563        -5.2399
  86   2.0000      -0.185515        -5.0481
  87   0.0000      -0.050841        -1.3835
  88   0.0000      -0.041641        -1.1331
  89   0.0000      -0.013617        -0.3705
  90   0.0000       0.006510         0.1771
  91   0.0000       0.033671         0.9162

MULLIKEN ATOMIC CHARGES
-----------------------
   0 C :   -0.304854
   1 C :   -0.012794
   2 O :   -0.241899
   3 C :    0.122421
   4 O :   -0.178814
   5 C :   -0.074329
   6 C :   -0.330870
   7 H :    0.150646
   8 C :    0.234729
   9 O :   -0.198795
  10 O :   -0.213582
  11 C :   -0.013401
  12 C :   -0.318299
  13 S :   -0.059125
  14 P :    0.650631
  15 S :   -0.345956
  16 O :   -0.390308
  17 C :   -0.084315
  18 O :   -0.389809
  19 C :   -0.095476
  20 H :    0.109746
  21 H :    0.138567
  22 H :    0.111144
  23 H :    0.099353
  24 H :    0.109214
  25 H :    0.116968
  26 H :    0.123010
  27 H :    0.110374
  28 H :    0.113353
  29 H :    0.147297
  30 H :    0.118169
  31 H :    0.115823
  32 H :    0.112106
  33 H :    0.114661
  34 H :    0.113239
  35 H :    0.121462
  36 H :    0.105394
  37 H :    0.114318
Sum of atomic charges:   -0.0000000

LOEWDIN ATOMIC CHARGES
----------------------
   0 C :   -0.357984
   1 C :   -0.110639
   2 O :   -0.066615
   3 C :    0.021274
   4 O :   -0.150890
   5 C :   -0.254965
   6 C :   -0.262781
   7 H :    0.149697
   8 C :    0.030672
   9 O :   -0.155265
  10 O :   -0.030827
  11 C :   -0.104808
  12 C :   -0.359676
  13 S :    0.135160
  14 P :    0.592278
  15 S :   -0.334348
  16 O :   -0.252350
  17 C :   -0.211826
  18 O :   -0.267780
  19 C :   -0.215630
  20 H :    0.128717
  21 H :    0.133920
  22 H :    0.122288
  23 H :    0.115818
  24 H :    0.120345
  25 H :    0.142533
  26 H :    0.135908
  27 H :    0.121654
  28 H :    0.122090
  29 H :    0.133036
  30 H :    0.127496
  31 H :    0.133018
  32 H :    0.107174
  33 H :    0.115112
  34 H :    0.111553
  35 H :    0.120511
  36 H :    0.107966
  37 H :    0.108165

  Mayer bond orders larger than 0.100000
B(  0-C ,  1-C ) :   1.1763 B(  0-C , 20-H ) :   0.9427 B(  0-C , 21-H ) :   0.9417
B(  0-C , 22-H ) :   0.9477 B(  1-C ,  2-O ) :   0.9161 B(  1-C , 23-H ) :   0.9376
B(  1-C , 24-H ) :   0.9141 B(  2-O ,  3-C ) :   1.1996 B(  3-C ,  4-O ) :   2.0858
B(  3-C ,  5-C ) :   1.0205 B(  5-C ,  6-C ) :   1.0337 B(  5-C , 25-H ) :   0.8739
B(  5-C , 26-H ) :   0.8785 B(  6-C ,  7-H ) :   0.8590 B(  6-C ,  8-C ) :   0.9206
B(  6-C , 13-S ) :   1.0471 B(  8-C ,  9-O ) :   1.9048 B(  8-C , 10-O ) :   1.2948
B(  9-O , 14-P ) :   0.1304 B( 10-O , 11-C ) :   0.8918 B( 11-C , 12-C ) :   1.1772
B( 11-C , 27-H ) :   0.9361 B( 11-C , 28-H ) :   0.9158 B( 12-C , 29-H ) :   0.9290
B( 12-C , 30-H ) :   0.9476 B( 12-C , 31-H ) :   0.9408 B( 13-S , 14-P ) :   0.9267
B( 13-S , 15-S ) :   0.1091 B( 14-P , 15-S ) :   1.5474 B( 14-P , 16-O ) :   1.0950
B( 14-P , 18-O ) :   1.0801 B( 16-O , 17-C ) :   0.9323 B( 17-C , 32-H ) :   0.9346
B( 17-C , 33-H ) :   0.9546 B( 17-C , 34-H ) :   0.9532 B( 18-O , 19-C ) :   0.9408
B( 19-C , 35-H ) :   0.9607 B( 19-C , 36-H ) :   0.9510 B( 19-C , 37-H ) :   0.9332

Dispersion correction           -0.053061571
FINAL SINGLE POINT ENERGY     -1979.012809386496

DIPOLE MOMENT
-------------

Method             : SCF
Type of density    : Electron Density
Multiplicity       :   1
Irrep              :   0
Energy             : -1979.1425190228642350 Eh
Relativity type    :
Basis              : AO
                                X                 Y                 Z
Electronic contribution:     -3.289853134      -2.220128779      -0.404701171
Nuclear contribution   :      3.657813414       3.511058556      -0.558529343
                        -----------------------------------------
Total Dipole Moment    :      0.367960280       1.290929777      -0.963230514
                        -----------------------------------------
Magnitude (a.u.)       :      1.652182642
Magnitude (Debye)      :      4.199514534

Rotational constants in cm-1:             0.011704             0.008417             0.006034
Rotational constants in MHz :           350.876540           252.346762           180.903556

                             ****ORCA TERMINATED NORMALLY****
TOTAL RUN TIME: 0 days 0 hours 0 minutes 49 seconds 824 msec
