                         Program Version 6.0.0  -   RELEASE  -
|  1> ! pbe def2-sv(p) def2/J RI DEFGRID1 loosescf d4 GCP(DFT/SV(P)) printgap
|  2> %output
|  3>     printlevel normal
|  4> end
|  5> * xyz 0 1
|  6> C 4.8401614398 1.6629447649 -0.2754774498
|  7> C 4.0289302849 1.3138926277 -1.5059047319
|  8> O 3.277025642 0.0941649147 -1.3586431933
|  9> P 2.3152960833 -0.2689573731 -0.1472128396
| 10> S 3.1631207045 -0.8677246574 1.5200921458
| 11> O 1.3991903701 -1.3586319013 -0.8338059672
| 12> C 1.5572626275 -2.783881687 -0.6693217173
| 13> C 0.259425597 -3.3827170197 -0.1664348688
| 14> S 1.0424386073 1.4076596711 -0.0168147522
| 15> C 0.3664767975 1.0568948175 1.6247490802
| 16> S -0.8422714065 -0.2994336135 1.647318408
| 17> P -2.1091954512 0.3064779232 0.0523350118
| 18> S -1.7140102552 -0.3016957087 -1.7735030225
| 19> O -2.1117633104 1.8680434551 0.307703782
| 20> C -2.4209889454 2.8084153807 -0.7422508979
| 21> C -3.8859432319 2.7585955467 -1.120598307
| 22> O -3.5627917589 -0.1090929426 0.548953947
| 23> C -4.133768394 -1.3977370284 0.2786090905
| 24> C -3.5582752076 -2.4602598118 1.1929374988
| 25> H 4.179189201 1.8804529699 0.5625357738
| 26> H 5.486118181 0.8330391481 0.0013991987
| 27> H 5.4478991809 2.5377637953 -0.4831637839
| 28> H 4.6715256181 1.1148073101 -2.3654907105
| 29> H 3.3259215361 2.1159827016 -1.7482295675
| 30> H 1.8192523151 -3.1715441211 -1.6555022784
| 31> H 2.3767271902 -2.9733709106 0.0320502124
| 32> H 0.3427003788 -4.464428952 -0.1619835058
| 33> H 0.0520447169 -3.0339054137 0.843188387
| 34> H -0.556423223 -3.0862335699 -0.821904114
| 35> H -0.1062509367 1.9710251214 1.973419344
| 36> H 1.1747737237 0.7445444557 2.2889159097
| 37> H -2.1410126048 3.7740218702 -0.3194385278
| 38> H -1.7870395065 2.5846229741 -1.6063761143
| 39> H -4.1179927856 1.7933821826 -1.5690420742
| 40> H -4.5062350278 2.8947190923 -0.2387532541
| 41> H -4.0992810207 3.5428703685 -1.8400267864
| 42> H -5.202911296 -1.258627096 0.4447314296
| 43> H -3.950162452 -1.6459039217 -0.7728057801
| 44> H -3.7079595484 -2.1838725555 2.2331057363
| 45> H -4.0440698624 -3.4104997913 0.9965664402
| 46> H -2.4886272241 -2.5638177979 1.0125568697
| 47> *
| 48>
| 49>                          ****END OF INPUT****

CARTESIAN COORDINATES (ANGSTROEM)
---------------------------------
  C      4.840161    1.662945   -0.275477
  C      4.028930    1.313893   -1.505905
  O      3.277026    0.094165   -1.358643
  P      2.315296   -0.268957   -0.147213
  S      3.163121   -0.867725    1.520092
  O      1.399190   -1.358632   -0.833806
  C      1.557263   -2.783882   -0.669322
  C      0.259426   -3.382717   -0.166435
  S      1.042439    1.407660   -0.016815
  C      0.366477    1.056895    1.624749
  S     -0.842271   -0.299434    1.647318
  P     -2.109195    0.306478    0.052335
  S     -1.714010   -0.301696   -1.773503
  O     -2.111763    1.868043    0.307704
  C     -2.420989    2.808415   -0.742251
  C     -3.885943    2.758596   -1.120598
  O     -3.562792   -0.109093    0.548954
  C     -4.133768   -1.397737    0.278609
  C     -3.558275   -2.460260    1.192937
  H      4.179189    1.880453    0.562536
  H      5.486118    0.833039    0.001399
  H      5.447899    2.537764   -0.483164
  H      4.671526    1.114807   -2.365491
  H      3.325922    2.115983   -1.748230
  H      1.819252   -3.171544   -1.655502
  H      2.376727   -2.973371    0.032050
  H      0.342700   -4.464429   -0.161984
  H      0.052045   -3.033905    0.843188
  H     -0.556423   -3.086234   -0.821904
  H     -0.106251    1.971025    1.973419
  H      1.174774    0.744544    2.288916
  H     -2.141013    3.774022   -0.319439
  H     -1.787040    2.584623   -1.606376
  H     -4.117993    1.793382   -1.569042
  H     -4.506235    2.894719   -0.238753
  H     -4.099281    3.542870   -1.840027
  H     -5.202911   -1.258627    0.444731
  H     -3.950162   -1.645904   -0.772806
  H     -3.707960   -2.183873    2.233106
  H     -4.044070   -3.410500    0.996566
  H     -2.488627   -2.563818    1.012557

 Total Charge           Charge          ....    0
 Multiplicity           Mult            ....    1
 Number of Electrons    NEL             ....  202
 Basis Dimension        Dim             ....  334

ORBITAL ENERGIES
----------------

  NO   OCC          E(Eh)            E(eV)
   0   2.0000     -88.045491     -2395.8396
   1   2.0000     -88.039231     -2395.6693
   2   2.0000     -87.984363     -2394.1762
   3   2.0000     -87.983820     -2394.1614
   4   2.0000     -76.426388     -2079.6677
   5   2.0000     -76.424229     -2079.6090
   6   2.0000     -18.796274      -511.4726
   7   2.0000     -18.791143      -511.3330
   8   2.0000     -18.788921      -511.2725
   9   2.0000     -18.779726      -511.0223
  10   2.0000      -9.956720      -270.9361
  11   2.0000      -9.956057      -270.9181
  12   2.0000      -9.954563      -270.8774
  13   2.0000      -9.952002      -270.8078
  14   2.0000      -9.941405      -270.5194
  15   2.0000      -9.887318      -269.0476
  16   2.0000      -9.885106      -268.9874
  17   2.0000      -9.882044      -268.9041
  18   2.0000      -9.871213      -268.6094
  19   2.0000      -7.690506      -209.2693
  20   2.0000      -7.684292      -209.1002
  21   2.0000      -7.629284      -207.6034
  22   2.0000      -7.628847      -207.5915
  23   2.0000      -6.423844      -174.8017
  24   2.0000      -6.421539      -174.7390
  25   2.0000      -5.718294      -155.6027
  26   2.0000      -5.714956      -155.5118
  27   2.0000      -5.712437      -155.4433
  28   2.0000      -5.708835      -155.3453
  29   2.0000      -5.707585      -155.3113
  30   2.0000      -5.700939      -155.1304
  31   2.0000      -5.658093      -153.9645
  32   2.0000      -5.657600      -153.9511
  33   2.0000      -5.650134      -153.7480
  34   2.0000      -5.649717      -153.7366
  35   2.0000      -5.649351      -153.7267
  36   2.0000      -5.648918      -153.7149
  37   2.0000      -4.646455      -126.4365
  38   2.0000      -4.645656      -126.4147
  39   2.0000      -4.644215      -126.3755
  40   2.0000      -4.643983      -126.3692
  41   2.0000      -4.643454      -126.3548
  42   2.0000      -4.642012      -126.3156
  43   2.0000      -0.989156       -26.9163
  44   2.0000      -0.980220       -26.6732
  45   2.0000      -0.948915       -25.8213
  46   2.0000      -0.937733       -25.5170
  47   2.0000      -0.764443       -20.8015
  48   2.0000      -0.720320       -19.6009
  49   2.0000      -0.707425       -19.2500
  50   2.0000      -0.688932       -18.7468
  51   2.0000      -0.682357       -18.5679
  52   2.0000      -0.670922       -18.2567
  53   2.0000      -0.651278       -17.7222
  54   2.0000      -0.638008       -17.3611
  55   2.0000      -0.600285       -16.3346
  56   2.0000      -0.590468       -16.0675
  57   2.0000      -0.574469       -15.6321
  58   2.0000      -0.571038       -15.5387
  59   2.0000      -0.556945       -15.1553
  60   2.0000      -0.498193       -13.5565
  61   2.0000      -0.493886       -13.4393
  62   2.0000      -0.477079       -12.9820
  63   2.0000      -0.465775       -12.6744
  64   2.0000      -0.460442       -12.5293
  65   2.0000      -0.442848       -12.0505
  66   2.0000      -0.439976       -11.9724
  67   2.0000      -0.429653       -11.6914
  68   2.0000      -0.425103       -11.5676
  69   2.0000      -0.414758       -11.2861
  70   2.0000      -0.411949       -11.2097
  71   2.0000      -0.396440       -10.7877
  72   2.0000      -0.394482       -10.7344
  73   2.0000      -0.388787       -10.5794
  74   2.0000      -0.379449       -10.3253
  75   2.0000      -0.371852       -10.1186
  76   2.0000      -0.368971       -10.0402
  77   2.0000      -0.358099        -9.7444
  78   2.0000      -0.352514        -9.5924
  79   2.0000      -0.349051        -9.4982
  80   2.0000      -0.346831        -9.4378
  81   2.0000      -0.343631        -9.3507
  82   2.0000      -0.339003        -9.2247
  83   2.0000      -0.334466        -9.1013
  84   2.0000      -0.329089        -8.9550
  85   2.0000      -0.320331        -8.7167
  86   2.0000      -0.305249        -8.3062
  87   2.0000      -0.295737        -8.0474
  88   2.0000      -0.294731        -8.0200
  89   2.0000      -0.286209        -7.7881
  90   2.0000      -0.282541        -7.6883
  91   2.0000      -0.275516        -7.4972
  92   2.0000      -0.268462        -7.3052
  93   2.0000      -0.262365        -7.1393
  94   2.0000      -0.259630        -7.0649
  95   2.0000      -0.234691        -6.3863
  96   2.0000      -0.220730        -6.0064
  97   2.0000      -0.206567        -5.6210
  98   2.0000      -0.199701        -5.4341
  99   2.0000      -0.197656        -5.3785
 100   2.0000      -0.192377        -5.2348
 101   0.0000      -0.048795        -1.3278
 102   0.0000      -0.022050        -0.6000
 103   0.0000      -0.020703        -0.5634
 104   0.0000       0.002161         0.0588
 105   0.0000       0.018425         0.5014

MULLIKEN ATOMIC CHARGES
-----------------------
   0 C :   -0.309847
   1 C :   -0.007832
   2 O :   -0.371787
   3 P :    0.623143
   4 S :   -0.340239
   5 O :   -0.347803
   6 C :    0.004012
   7 C :   -0.319625
   8 S :   -0.099896
   9 C :   -0.336909
  10 S :   -0.099685
  11 P :    0.615705
  12 S :   -0.307192
  13 O :   -0.377144
  14 C :   -0.005526
  15 C :   -0.303690
  16 O :   -0.366377
  17 C :   -0.006476
  18 C :   -0.334306
  19 H :    0.121639
  20 H :    0.127757
  21 H :    0.110064
  22 H :    0.109635
  23 H :    0.111585
  24 H :    0.100613
  25 H :    0.104966
  26 H :    0.100463
  27 H :    0.134447
  28 H :    0.127069
  29 H :    0.186742
  30 H :    0.191881
  31 H :    0.102811
  32 H :    0.115293
  33 H :    0.123464
  34 H :    0.117328
  35 H :    0.112495
  36 H :    0.105619
  37 H :    0.107241
  38 H :    0.121598
  39 H :    0.115263
  40 H :    0.143501
Sum of atomic charges:   -0.0000000

LOEWDIN ATOMIC CHARGES
----------------------
   0 C :   -0.370215
   1 C :   -0.112994
   2 O :   -0.245471
   3 P :    0.574374
   4 S :   -0.321997
   5 O :   -0.231486
   6 C :   -0.112761
   7 C :   -0.365152
   8 S :    0.089788
   9 C :   -0.476454
  10 S :    0.085048
  11 P :    0.570000
  12 S :   -0.305330
  13 O :   -0.241453
  14 C :   -0.118096
  15 C :   -0.364369
  16 O :   -0.243005
  17 C :   -0.122615
  18 C :   -0.367236
  19 H :    0.119302
  20 H :    0.130045
  21 H :    0.129286
  22 H :    0.121810
  23 H :    0.108974
  24 H :    0.115259
  25 H :    0.104555
  26 H :    0.125022
  27 H :    0.119853
  28 H :    0.122571
  29 H :    0.133992
  30 H :    0.129161
  31 H :    0.117364
  32 H :    0.111731
  33 H :    0.123316
  34 H :    0.126970
  35 H :    0.130888
  36 H :    0.118855
  37 H :    0.106727
  38 H :    0.127830
  39 H :    0.132561
  40 H :    0.123353

  Mayer bond orders larger than 0.100000
B(  0-C ,  1-C ) :   1.1635 B(  0-C , 19-H ) :   0.9336 B(  0-C , 20-H ) :   0.9420
B(  0-C , 21-H ) :   0.9350 B(  1-C ,  2-O ) :   0.9160 B(  1-C , 22-H ) :   0.9345
B(  1-C , 23-H ) :   0.9287 B(  2-O ,  3-P ) :   1.1205 B(  3-P ,  4-S ) :   1.5939
B(  3-P ,  5-O ) :   1.1568 B(  3-P ,  8-S ) :   0.9421 B(  4-S ,  8-S ) :   0.1072
B(  5-O ,  6-C ) :   0.9016 B(  6-C ,  7-C ) :   1.1662 B(  6-C , 24-H ) :   0.9325
B(  6-C , 25-H ) :   0.9033 B(  7-C , 26-H ) :   0.9365 B(  7-C , 27-H ) :   0.9351
B(  7-C , 28-H ) :   0.9366 B(  8-S ,  9-C ) :   1.0169 B(  9-C , 10-S ) :   1.0002
B(  9-C , 29-H ) :   0.9030 B(  9-C , 30-H ) :   0.8713 B( 10-S , 11-P ) :   0.9547
B( 10-S , 12-S ) :   0.1044 B( 11-P , 12-S ) :   1.6271 B( 11-P , 13-O ) :   1.1084
B( 11-P , 16-O ) :   1.1006 B( 13-O , 14-C ) :   0.8987 B( 14-C , 15-C ) :   1.1661
B( 14-C , 31-H ) :   0.9343 B( 14-C , 32-H ) :   0.9150 B( 15-C , 33-H ) :   0.9350
B( 15-C , 34-H ) :   0.9458 B( 15-C , 35-H ) :   0.9388 B( 16-O , 17-C ) :   0.9142
B( 17-C , 18-C ) :   1.1634 B( 17-C , 36-H ) :   0.9322 B( 17-C , 37-H ) :   0.9079
B( 18-C , 38-H ) :   0.9444 B( 18-C , 39-H ) :   0.9392 B( 18-C , 40-H ) :   0.9285

Dispersion correction           -0.067204626
FINAL SINGLE POINT ENERGY     -2929.518969829402

DIPOLE MOMENT
-------------

Method             : SCF
Type of density    : Electron Density
Multiplicity       :   1
Irrep              :   0
Energy             : -2929.6360632590644855 Eh
Relativity type    :
Basis              : AO
                                X                 Y                 Z
Electronic contribution:      7.003088633       2.573085997       2.717023251
Nuclear contribution   :     -7.594266081      -1.905438331      -2.971625263
                        -----------------------------------------
Total Dipole Moment    :     -0.591177447       0.667647666      -0.254602012
                        -----------------------------------------
Magnitude (a.u.)       :      0.927397630
Magnitude (Debye)      :      2.357257441

Rotational constants in cm-1:             0.012318             0.005506             0.004708
Rotational constants in MHz :           369.287013           165.074875           141.142807

                             ****ORCA TERMINATED NORMALLY****
TOTAL RUN TIME: 0 days 0 hours 0 minutes 22 seconds 211 msec
