                         Program Version 6.0.0  -   RELEASE  -
|  1> ! pbe def2-sv(p) def2/J RI DEFGRID1 loosescf d4 GCP(DFT/SV(P)) printgap
|  2> %output
|  3>     printlevel normal
|  4> end
|  5> * xyz 0 1
|  6> C 2.2541320203 1.0104502235 -2.2156869505
|  7> C 2.5774764695 1.8266216996 -0.9825740462
|  8> O 2.0423777874 1.2510194408 0.2347739819
|  9> P 2.3832441995 -0.1805571093 0.8108345444
| 10> S 2.2834580609 -0.2301660964 2.765909028
| 11> O 3.8186772182 -0.465871545 0.1952866415
| 12> C 4.7132673733 -1.4469105972 0.7528219854
| 13> C 4.1928767343 -2.8598873497 0.5893304456
| 14> S 1.0762240402 -1.5486707502 -0.1804208958
| 15> C -0.2480425524 -1.4862136653 1.050099141
| 16> S -0.9539112622 0.1728828998 1.2857495986
| 17> P -2.21591376 0.2294182792 -0.4106543901
| 18> S -1.4462975872 0.0259450795 -2.2041260155
| 19> O -3.0008145872 1.5922083214 -0.1895918751
| 20> C -2.4755834024 2.8582052074 -0.6344424002
| 21> C -3.6356187031 3.8228576519 -0.7776124078
| 22> O -3.2725945802 -0.8687372657 0.0105594564
| 23> C -4.153139509 -1.4869739202 -0.9538805443
| 24> C -5.1835150727 -0.5086708516 -1.4754066387
| 25> H 1.1806759705 0.8682903125 -2.3196542871
| 26> H 2.6246706785 1.5329376746 -3.0919621733
| 27> H 2.7284069924 0.0329072171 -2.1583981046
| 28> H 2.1087130253 2.8114568574 -1.0175391434
| 29> H 3.6571954653 1.9320827766 -0.8591641436
| 30> H 5.6412512764 -1.2922003879 0.2005421355
| 31> H 4.8635549868 -1.2130762899 1.8112170301
| 32> H 3.9296911271 -3.051218484 -0.4479263778
| 33> H 4.9593786074 -3.5612536881 0.9028000061
| 34> H 3.3088273726 -3.0043256839 1.2082408326
| 35> H 0.1534492414 -1.7696838349 2.0229163047
| 36> H -1.023243071 -2.1756402377 0.7255780143
| 37> H -1.7547969664 3.2075825496 0.1101743135
| 38> H -1.96029168 2.7058838059 -1.5894452007
| 39> H -3.2555478215 4.7942313887 -1.0763477162
| 40> H -4.3320987781 3.4636085077 -1.529847405
| 41> H -4.1575707957 3.9159145775 0.1702574239
| 42> H -3.5463496892 -1.8831920693 -1.7745452924
| 43> H -4.6131590238 -2.3057689794 -0.3993040108
| 44> H -5.7167715097 -0.0485408991 -0.6478254304
| 45> H -4.6902417595 0.2710539098 -2.0541786507
| 46> H -5.8869191914 -1.0323120086 -2.1151926998
| 47> *
| 48>
| 49>                          ****END OF INPUT****

CARTESIAN COORDINATES (ANGSTROEM)
---------------------------------
  C      2.254132    1.010450   -2.215687
  C      2.577476    1.826622   -0.982574
  O      2.042378    1.251019    0.234774
  P      2.383244   -0.180557    0.810835
  S      2.283458   -0.230166    2.765909
  O      3.818677   -0.465872    0.195287
  C      4.713267   -1.446911    0.752822
  C      4.192877   -2.859887    0.589330
  S      1.076224   -1.548671   -0.180421
  C     -0.248043   -1.486214    1.050099
  S     -0.953911    0.172883    1.285750
  P     -2.215914    0.229418   -0.410654
  S     -1.446298    0.025945   -2.204126
  O     -3.000815    1.592208   -0.189592
  C     -2.475583    2.858205   -0.634442
  C     -3.635619    3.822858   -0.777612
  O     -3.272595   -0.868737    0.010559
  C     -4.153140   -1.486974   -0.953881
  C     -5.183515   -0.508671   -1.475407
  H      1.180676    0.868290   -2.319654
  H      2.624671    1.532938   -3.091962
  H      2.728407    0.032907   -2.158398
  H      2.108713    2.811457   -1.017539
  H      3.657195    1.932083   -0.859164
  H      5.641251   -1.292200    0.200542
  H      4.863555   -1.213076    1.811217
  H      3.929691   -3.051218   -0.447926
  H      4.959379   -3.561254    0.902800
  H      3.308827   -3.004326    1.208241
  H      0.153449   -1.769684    2.022916
  H     -1.023243   -2.175640    0.725578
  H     -1.754797    3.207583    0.110174
  H     -1.960292    2.705884   -1.589445
  H     -3.255548    4.794231   -1.076348
  H     -4.332099    3.463609   -1.529847
  H     -4.157571    3.915915    0.170257
  H     -3.546350   -1.883192   -1.774545
  H     -4.613159   -2.305769   -0.399304
  H     -5.716772   -0.048541   -0.647825
  H     -4.690242    0.271054   -2.054179
  H     -5.886919   -1.032312   -2.115193

 Total Charge           Charge          ....    0
 Multiplicity           Mult            ....    1
 Number of Electrons    NEL             ....  202
 Basis Dimension        Dim             ....  334

ORBITAL ENERGIES
----------------

  NO   OCC          E(Eh)            E(eV)
   0   2.0000     -88.036958     -2395.6074
   1   2.0000     -88.034986     -2395.5538
   2   2.0000     -87.987562     -2394.2633
   3   2.0000     -87.982356     -2394.1216
   4   2.0000     -76.424770     -2079.6237
   5   2.0000     -76.424260     -2079.6098
   6   2.0000     -18.796059      -511.4668
   7   2.0000     -18.794534      -511.4253
   8   2.0000     -18.793727      -511.4033
   9   2.0000     -18.783324      -511.1202
  10   2.0000      -9.954181      -270.8670
  11   2.0000      -9.954055      -270.8636
  12   2.0000      -9.953954      -270.8609
  13   2.0000      -9.953064      -270.8366
  14   2.0000      -9.950243      -270.7599
  15   2.0000      -9.889585      -269.1093
  16   2.0000      -9.885899      -269.0090
  17   2.0000      -9.883763      -268.9509
  18   2.0000      -9.874898      -268.7096
  19   2.0000      -7.682089      -209.0403
  20   2.0000      -7.679959      -208.9823
  21   2.0000      -7.632219      -207.6832
  22   2.0000      -7.627601      -207.5576
  23   2.0000      -6.422786      -174.7729
  24   2.0000      -6.421371      -174.7344
  25   2.0000      -5.709990      -155.3767
  26   2.0000      -5.707765      -155.3162
  27   2.0000      -5.706757      -155.2888
  28   2.0000      -5.704640      -155.2311
  29   2.0000      -5.698857      -155.0738
  30   2.0000      -5.696823      -155.0184
  31   2.0000      -5.660829      -154.0390
  32   2.0000      -5.656529      -153.9220
  33   2.0000      -5.652835      -153.8215
  34   2.0000      -5.652712      -153.8181
  35   2.0000      -5.648281      -153.6975
  36   2.0000      -5.647665      -153.6808
  37   2.0000      -4.645396      -126.4076
  38   2.0000      -4.644600      -126.3860
  39   2.0000      -4.644581      -126.3855
  40   2.0000      -4.643075      -126.3445
  41   2.0000      -4.642791      -126.3368
  42   2.0000      -4.641645      -126.3056
  43   2.0000      -0.988700       -26.9039
  44   2.0000      -0.986275       -26.8379
  45   2.0000      -0.949098       -25.8263
  46   2.0000      -0.940631       -25.5959
  47   2.0000      -0.760058       -20.6822
  48   2.0000      -0.720743       -19.6124
  49   2.0000      -0.707047       -19.2397
  50   2.0000      -0.691087       -18.8054
  51   2.0000      -0.688000       -18.7214
  52   2.0000      -0.670300       -18.2398
  53   2.0000      -0.649849       -17.6833
  54   2.0000      -0.635123       -17.2826
  55   2.0000      -0.599787       -16.3210
  56   2.0000      -0.593031       -16.1372
  57   2.0000      -0.574789       -15.6408
  58   2.0000      -0.567779       -15.4501
  59   2.0000      -0.558331       -15.1930
  60   2.0000      -0.504785       -13.7359
  61   2.0000      -0.492711       -13.4074
  62   2.0000      -0.481063       -13.0904
  63   2.0000      -0.466954       -12.7065
  64   2.0000      -0.458232       -12.4691
  65   2.0000      -0.447223       -12.1695
  66   2.0000      -0.439926       -11.9710
  67   2.0000      -0.436612       -11.8808
  68   2.0000      -0.422087       -11.4856
  69   2.0000      -0.419255       -11.4085
  70   2.0000      -0.407441       -11.0870
  71   2.0000      -0.397508       -10.8167
  72   2.0000      -0.395513       -10.7624
  73   2.0000      -0.381682       -10.3861
  74   2.0000      -0.376599       -10.2478
  75   2.0000      -0.373425       -10.1614
  76   2.0000      -0.367563       -10.0019
  77   2.0000      -0.358661        -9.7597
  78   2.0000      -0.356469        -9.7000
  79   2.0000      -0.349628        -9.5139
  80   2.0000      -0.345731        -9.4078
  81   2.0000      -0.344547        -9.3756
  82   2.0000      -0.342570        -9.3218
  83   2.0000      -0.334688        -9.1073
  84   2.0000      -0.333276        -9.0689
  85   2.0000      -0.321719        -8.7544
  86   2.0000      -0.308195        -8.3864
  87   2.0000      -0.300935        -8.1888
  88   2.0000      -0.294305        -8.0084
  89   2.0000      -0.290137        -7.8950
  90   2.0000      -0.286647        -7.8001
  91   2.0000      -0.276115        -7.5135
  92   2.0000      -0.271535        -7.3889
  93   2.0000      -0.262694        -7.1483
  94   2.0000      -0.255696        -6.9578
  95   2.0000      -0.234592        -6.3836
  96   2.0000      -0.213054        -5.7975
  97   2.0000      -0.207785        -5.6541
  98   2.0000      -0.202553        -5.5118
  99   2.0000      -0.199130        -5.4186
 100   2.0000      -0.190260        -5.1772
 101   0.0000      -0.041850        -1.1388
 102   0.0000      -0.023804        -0.6477
 103   0.0000      -0.001708        -0.0465
 104   0.0000       0.003358         0.0914
 105   0.0000       0.016246         0.4421

MULLIKEN ATOMIC CHARGES
-----------------------
   0 C :   -0.343541
   1 C :    0.012965
   2 O :   -0.361434
   3 P :    0.617025
   4 S :   -0.323792
   5 O :   -0.384188
   6 C :   -0.000713
   7 C :   -0.315784
   8 S :   -0.079063
   9 C :   -0.357971
  10 S :   -0.059549
  11 P :    0.607852
  12 S :   -0.325234
  13 O :   -0.377830
  14 C :   -0.013979
  15 C :   -0.283378
  16 O :   -0.368951
  17 C :   -0.007110
  18 C :   -0.308373
  19 H :    0.150975
  20 H :    0.106096
  21 H :    0.117138
  22 H :    0.104197
  23 H :    0.103944
  24 H :    0.104441
  25 H :    0.114528
  26 H :    0.118290
  27 H :    0.113246
  28 H :    0.127384
  29 H :    0.195534
  30 H :    0.179144
  31 H :    0.108804
  32 H :    0.104545
  33 H :    0.112191
  34 H :    0.119318
  35 H :    0.119647
  36 H :    0.111740
  37 H :    0.106216
  38 H :    0.119365
  39 H :    0.123315
  40 H :    0.112991
Sum of atomic charges:   -0.0000000

LOEWDIN ATOMIC CHARGES
----------------------
   0 C :   -0.378185
   1 C :   -0.105352
   2 O :   -0.239956
   3 P :    0.576502
   4 S :   -0.317366
   5 O :   -0.244670
   6 C :   -0.116510
   7 C :   -0.370541
   8 S :    0.083812
   9 C :   -0.479893
  10 S :    0.096158
  11 P :    0.563830
  12 S :   -0.312780
  13 O :   -0.247224
  14 C :   -0.120225
  15 C :   -0.350621
  16 O :   -0.240997
  17 C :   -0.118653
  18 C :   -0.364914
  19 H :    0.122119
  20 H :    0.128901
  21 H :    0.116477
  22 H :    0.120063
  23 H :    0.112089
  24 H :    0.118315
  25 H :    0.113181
  26 H :    0.124107
  27 H :    0.131309
  28 H :    0.121375
  29 H :    0.130988
  30 H :    0.131902
  31 H :    0.113894
  32 H :    0.106086
  33 H :    0.131059
  34 H :    0.127424
  35 H :    0.128267
  36 H :    0.110438
  37 H :    0.119052
  38 H :    0.127639
  39 H :    0.121905
  40 H :    0.130996

  Mayer bond orders larger than 0.100000
B(  0-C ,  1-C ) :   1.1697 B(  0-C , 19-H ) :   0.9179 B(  0-C , 20-H ) :   0.9348
B(  0-C , 21-H ) :   0.9390 B(  1-C ,  2-O ) :   0.8993 B(  1-C , 22-H ) :   0.9340
B(  1-C , 23-H ) :   0.9302 B(  2-O ,  3-P ) :   1.1338 B(  3-P ,  4-S ) :   1.6152
B(  3-P ,  5-O ) :   1.0784 B(  3-P ,  8-S ) :   0.9468 B(  4-S ,  8-S ) :   0.1130
B(  5-O ,  6-C ) :   0.9025 B(  6-C ,  7-C ) :   1.1669 B(  6-C , 24-H ) :   0.9342
B(  6-C , 25-H ) :   0.9166 B(  7-C , 26-H ) :   0.9447 B(  7-C , 27-H ) :   0.9367
B(  7-C , 28-H ) :   0.9337 B(  8-S ,  9-C ) :   1.0105 B(  9-C , 10-S ) :   0.9983
B(  9-C , 29-H ) :   0.8809 B(  9-C , 30-H ) :   0.8979 B( 10-S , 11-P ) :   0.9782
B( 10-S , 12-S ) :   0.1136 B( 11-P , 12-S ) :   1.6105 B( 11-P , 13-O ) :   1.1035
B( 11-P , 16-O ) :   1.1163 B( 13-O , 14-C ) :   0.9040 B( 14-C , 15-C ) :   1.1607
B( 14-C , 31-H ) :   0.9304 B( 14-C , 32-H ) :   0.9067 B( 15-C , 33-H ) :   0.9415
B( 15-C , 34-H ) :   0.9515 B( 15-C , 35-H ) :   0.9501 B( 16-O , 17-C ) :   0.9014
B( 17-C , 18-C ) :   1.1675 B( 17-C , 36-H ) :   0.9147 B( 17-C , 37-H ) :   0.9339
B( 18-C , 38-H ) :   0.9460 B( 18-C , 39-H ) :   0.9348 B( 18-C , 40-H ) :   0.9383

Dispersion correction           -0.064584620
FINAL SINGLE POINT ENERGY     -2929.519111370256

DIPOLE MOMENT
-------------

Method             : SCF
Type of density    : Electron Density
Multiplicity       :   1
Irrep              :   0
Energy             : -2929.6385652323469913 Eh
Relativity type    :
Basis              : AO
                                X                 Y                 Z
Electronic contribution:      5.386907537      -3.943627610      12.578546902
Nuclear contribution   :     -5.607127508       3.963558801     -13.470465821
                        -----------------------------------------
Total Dipole Moment    :     -0.220219971       0.019931190      -0.891918919
                        -----------------------------------------
Magnitude (a.u.)       :      0.918919717
Magnitude (Debye)      :      2.335708299

Rotational constants in cm-1:             0.013682             0.004543             0.004307
Rotational constants in MHz :           410.177076           136.202856           129.123201

                             ****ORCA TERMINATED NORMALLY****
TOTAL RUN TIME: 0 days 0 hours 0 minutes 20 seconds 645 msec
