                         Program Version 6.0.0  -   RELEASE  -
|  1> ! pbe def2-sv(p) def2/J RI DEFGRID1 loosescf d4 GCP(DFT/SV(P)) printgap
|  2> %output
|  3>     printlevel normal
|  4> end
|  5> * xyz 0 1
|  6> C 0.2768568053 -1.3878865441 3.0168647652
|  7> C 1.4258099889 -0.5504287572 2.4952352637
|  8> O 1.9194213008 -1.1698299624 1.2799522435
|  9> P 2.6054593061 -0.3479436998 0.1236015201
| 10> S 3.3357839094 -1.503514039 -1.2722590757
| 11> O 3.6533844575 0.5331936645 0.9316144367
| 12> C 4.7817174183 1.1749140598 0.3071032671
| 13> C 4.3651061162 2.2367361981 -0.689357466
| 14> S 1.1377787151 1.0711646138 -0.5134100211
| 15> C 0.3683866456 -0.0007256673 -1.7477090125
| 16> S -0.5923260202 -1.3452600453 -0.9992094582
| 17> P -2.2281525601 -0.1391412106 -0.4150668116
| 18> S -2.7689950426 1.2359209281 -1.7089052499
| 19> O -1.8887157555 0.4305946176 1.0343033979
| 20> C -1.7837861841 1.8313687557 1.3514647816
| 21> C -3.1002279906 2.3456181515 1.8990726235
| 22> O -3.1951819931 -1.3543104778 -0.1067659124
| 23> C -4.4264835106 -1.2158774758 0.6364775325
| 24> C -5.5470423186 -0.6701103953 -0.2263780661
| 25> H -0.5413103381 -1.3955254422 2.3004304119
| 26> H 0.6070385484 -2.410481569 3.1752998125
| 27> H -0.0721454517 -0.9706943544 3.9560095056
| 28> H 2.2557496939 -0.5179671117 3.2034891448
| 29> H 1.1103895025 0.4713129726 2.2628701615
| 30> H 5.3307615771 1.6027452144 1.1470614454
| 31> H 5.386306666 0.4052625022 -0.1817109885
| 32> H 3.8819546306 1.7727135178 -1.5479730187
| 33> H 3.6710440464 2.9370583964 -0.2315705693
| 34> H 5.2457522617 2.7713882726 -1.0305126382
| 35> H 1.1466068957 -0.4659426588 -2.3532238115
| 36> H -0.2884415257 0.6252833516 -2.3535123988
| 37> H -0.9872516154 1.8953280212 2.0937154427
| 38> H -1.4945188443 2.3850709735 0.4536806066
| 39> H -2.9831277125 3.3846724753 2.1890226949
| 40> H -3.8710351751 2.2794362835 1.1335045177
| 41> H -3.4041994369 1.7640716846 2.7651689614
| 42> H -4.6426178807 -2.2322674129 0.9704972261
| 43> H -4.2458770592 -0.5738998475 1.5023886797
| 44> H -5.6886665878 -1.301406823 -1.0997147315
| 45> H -6.4655854078 -0.6454547561 0.3514304338
| 46> H -5.3123856971 0.3369513395 -0.5657151037
| 47> *
| 48>
| 49>                          ****END OF INPUT****

CARTESIAN COORDINATES (ANGSTROEM)
---------------------------------
  C      0.276857   -1.387887    3.016865
  C      1.425810   -0.550429    2.495235
  O      1.919421   -1.169830    1.279952
  P      2.605459   -0.347944    0.123602
  S      3.335784   -1.503514   -1.272259
  O      3.653384    0.533194    0.931614
  C      4.781717    1.174914    0.307103
  C      4.365106    2.236736   -0.689357
  S      1.137779    1.071165   -0.513410
  C      0.368387   -0.000726   -1.747709
  S     -0.592326   -1.345260   -0.999209
  P     -2.228153   -0.139141   -0.415067
  S     -2.768995    1.235921   -1.708905
  O     -1.888716    0.430595    1.034303
  C     -1.783786    1.831369    1.351465
  C     -3.100228    2.345618    1.899073
  O     -3.195182   -1.354310   -0.106766
  C     -4.426484   -1.215877    0.636478
  C     -5.547042   -0.670110   -0.226378
  H     -0.541310   -1.395525    2.300430
  H      0.607039   -2.410482    3.175300
  H     -0.072145   -0.970694    3.956010
  H      2.255750   -0.517967    3.203489
  H      1.110390    0.471313    2.262870
  H      5.330762    1.602745    1.147061
  H      5.386307    0.405263   -0.181711
  H      3.881955    1.772714   -1.547973
  H      3.671044    2.937058   -0.231571
  H      5.245752    2.771388   -1.030513
  H      1.146607   -0.465943   -2.353224
  H     -0.288442    0.625283   -2.353512
  H     -0.987252    1.895328    2.093715
  H     -1.494519    2.385071    0.453681
  H     -2.983128    3.384672    2.189023
  H     -3.871035    2.279436    1.133505
  H     -3.404199    1.764072    2.765169
  H     -4.642618   -2.232267    0.970497
  H     -4.245877   -0.573900    1.502389
  H     -5.688667   -1.301407   -1.099715
  H     -6.465585   -0.645455    0.351430
  H     -5.312386    0.336951   -0.565715

 Total Charge           Charge          ....    0
 Multiplicity           Mult            ....    1
 Number of Electrons    NEL             ....  202
 Basis Dimension        Dim             ....  334

ORBITAL ENERGIES
----------------

  NO   OCC          E(Eh)            E(eV)
   0   2.0000     -88.042688     -2395.7633
   1   2.0000     -88.038439     -2395.6477
   2   2.0000     -87.992966     -2394.4103
   3   2.0000     -87.987942     -2394.2736
   4   2.0000     -76.430068     -2079.7679
   5   2.0000     -76.426981     -2079.6839
   6   2.0000     -18.798481      -511.5327
   7   2.0000     -18.797738      -511.5124
   8   2.0000     -18.796731      -511.4851
   9   2.0000     -18.790062      -511.3036
  10   2.0000      -9.961704      -271.0717
  11   2.0000      -9.956790      -270.9380
  12   2.0000      -9.956124      -270.9199
  13   2.0000      -9.955006      -270.8895
  14   2.0000      -9.949257      -270.7331
  15   2.0000      -9.891521      -269.1620
  16   2.0000      -9.886993      -269.0388
  17   2.0000      -9.885903      -269.0091
  18   2.0000      -9.883119      -268.9333
  19   2.0000      -7.687301      -209.1821
  20   2.0000      -7.683766      -209.0859
  21   2.0000      -7.637822      -207.8357
  22   2.0000      -7.633227      -207.7107
  23   2.0000      -6.427676      -174.9060
  24   2.0000      -6.424532      -174.8204
  25   2.0000      -5.714962      -155.5120
  26   2.0000      -5.711907      -155.4289
  27   2.0000      -5.711661      -155.4222
  28   2.0000      -5.708500      -155.3362
  29   2.0000      -5.704459      -155.2262
  30   2.0000      -5.700455      -155.1173
  31   2.0000      -5.666646      -154.1973
  32   2.0000      -5.662181      -154.0758
  33   2.0000      -5.658752      -153.9825
  34   2.0000      -5.657769      -153.9557
  35   2.0000      -5.653706      -153.8452
  36   2.0000      -5.653453      -153.8383
  37   2.0000      -4.650528      -126.5473
  38   2.0000      -4.649090      -126.5082
  39   2.0000      -4.648190      -126.4837
  40   2.0000      -4.647437      -126.4632
  41   2.0000      -4.646155      -126.4283
  42   2.0000      -4.644832      -126.3923
  43   2.0000      -0.992100       -26.9964
  44   2.0000      -0.989586       -26.9280
  45   2.0000      -0.950089       -25.8532
  46   2.0000      -0.945360       -25.7245
  47   2.0000      -0.764084       -20.7918
  48   2.0000      -0.725629       -19.7454
  49   2.0000      -0.712155       -19.3787
  50   2.0000      -0.693620       -18.8743
  51   2.0000      -0.690345       -18.7852
  52   2.0000      -0.675991       -18.3947
  53   2.0000      -0.653207       -17.7747
  54   2.0000      -0.639208       -17.3937
  55   2.0000      -0.601496       -16.3676
  56   2.0000      -0.592531       -16.1236
  57   2.0000      -0.582727       -15.8568
  58   2.0000      -0.571274       -15.5452
  59   2.0000      -0.557843       -15.1797
  60   2.0000      -0.508451       -13.8356
  61   2.0000      -0.502316       -13.6687
  62   2.0000      -0.482318       -13.1245
  63   2.0000      -0.475440       -12.9374
  64   2.0000      -0.462263       -12.5788
  65   2.0000      -0.448520       -12.2049
  66   2.0000      -0.441922       -12.0253
  67   2.0000      -0.439849       -11.9689
  68   2.0000      -0.433024       -11.7832
  69   2.0000      -0.418432       -11.3861
  70   2.0000      -0.411437       -11.1958
  71   2.0000      -0.398971       -10.8566
  72   2.0000      -0.391402       -10.6506
  73   2.0000      -0.383979       -10.4486
  74   2.0000      -0.380225       -10.3465
  75   2.0000      -0.375033       -10.2052
  76   2.0000      -0.365923        -9.9573
  77   2.0000      -0.362445        -9.8626
  78   2.0000      -0.357029        -9.7152
  79   2.0000      -0.355960        -9.6862
  80   2.0000      -0.353093        -9.6081
  81   2.0000      -0.346017        -9.4156
  82   2.0000      -0.344232        -9.3670
  83   2.0000      -0.339899        -9.2491
  84   2.0000      -0.337307        -9.1786
  85   2.0000      -0.324274        -8.8239
  86   2.0000      -0.310299        -8.4437
  87   2.0000      -0.303151        -8.2492
  88   2.0000      -0.298867        -8.1326
  89   2.0000      -0.297332        -8.0908
  90   2.0000      -0.296439        -8.0665
  91   2.0000      -0.282993        -7.7006
  92   2.0000      -0.273882        -7.4527
  93   2.0000      -0.266445        -7.2503
  94   2.0000      -0.258680        -7.0390
  95   2.0000      -0.234250        -6.3743
  96   2.0000      -0.219025        -5.9600
  97   2.0000      -0.215326        -5.8593
  98   2.0000      -0.206418        -5.6169
  99   2.0000      -0.203659        -5.5418
 100   2.0000      -0.200722        -5.4619
 101   0.0000      -0.046485        -1.2649
 102   0.0000      -0.024571        -0.6686
 103   0.0000      -0.002515        -0.0684
 104   0.0000       0.000129         0.0035
 105   0.0000       0.012965         0.3528

MULLIKEN ATOMIC CHARGES
-----------------------
   0 C :   -0.286895
   1 C :   -0.018386
   2 O :   -0.350885
   3 P :    0.603038
   4 S :   -0.306728
   5 O :   -0.385980
   6 C :    0.001443
   7 C :   -0.317966
   8 S :   -0.107998
   9 C :   -0.383565
  10 S :   -0.051323
  11 P :    0.641052
  12 S :   -0.327859
  13 O :   -0.382054
  14 C :   -0.016861
  15 C :   -0.297410
  16 O :   -0.375700
  17 C :   -0.017728
  18 C :   -0.308823
  19 H :    0.132577
  20 H :    0.118703
  21 H :    0.100912
  22 H :    0.106822
  23 H :    0.104119
  24 H :    0.104863
  25 H :    0.113904
  26 H :    0.129577
  27 H :    0.116599
  28 H :    0.114671
  29 H :    0.195583
  30 H :    0.194192
  31 H :    0.108624
  32 H :    0.112732
  33 H :    0.113472
  34 H :    0.119973
  35 H :    0.116354
  36 H :    0.112510
  37 H :    0.107392
  38 H :    0.123127
  39 H :    0.109735
  40 H :    0.134189
Sum of atomic charges:    0.0000000

LOEWDIN ATOMIC CHARGES
----------------------
   0 C :   -0.355609
   1 C :   -0.112541
   2 O :   -0.234245
   3 P :    0.572692
   4 S :   -0.303409
   5 O :   -0.250420
   6 C :   -0.114679
   7 C :   -0.371056
   8 S :    0.071829
   9 C :   -0.492707
  10 S :    0.103920
  11 P :    0.572068
  12 S :   -0.310558
  13 O :   -0.241984
  14 C :   -0.124320
  15 C :   -0.361780
  16 O :   -0.243065
  17 C :   -0.111573
  18 C :   -0.365094
  19 H :    0.124286
  20 H :    0.129271
  21 H :    0.126059
  22 H :    0.115321
  23 H :    0.100425
  24 H :    0.118760
  25 H :    0.114222
  26 H :    0.122308
  27 H :    0.122688
  28 H :    0.131878
  29 H :    0.128695
  30 H :    0.127222
  31 H :    0.112887
  32 H :    0.105206
  33 H :    0.132161
  34 H :    0.123357
  35 H :    0.122405
  36 H :    0.122673
  37 H :    0.109437
  38 H :    0.131077
  39 H :    0.129547
  40 H :    0.122645

  Mayer bond orders larger than 0.100000
B(  0-C ,  1-C ) :   1.1682 B(  0-C , 19-H ) :   0.9345 B(  0-C , 20-H ) :   0.9468
B(  0-C , 21-H ) :   0.9403 B(  1-C ,  2-O ) :   0.8886 B(  1-C , 22-H ) :   0.9317
B(  1-C , 23-H ) :   0.9072 B(  2-O ,  3-P ) :   1.1443 B(  3-P ,  4-S ) :   1.6405
B(  3-P ,  5-O ) :   1.0871 B(  3-P ,  8-S ) :   0.9368 B(  4-S ,  8-S ) :   0.1079
B(  5-O ,  6-C ) :   0.9058 B(  6-C ,  7-C ) :   1.1663 B(  6-C , 24-H ) :   0.9346
B(  6-C , 25-H ) :   0.9201 B(  7-C , 26-H ) :   0.9346 B(  7-C , 27-H ) :   0.9434
B(  7-C , 28-H ) :   0.9365 B(  8-S ,  9-C ) :   0.9967 B(  9-C , 10-S ) :   1.0086
B(  9-C , 29-H ) :   0.8715 B(  9-C , 30-H ) :   0.8678 B( 10-S , 11-P ) :   0.9694
B( 10-S , 12-S ) :   0.1085 B( 11-P , 12-S ) :   1.6006 B( 11-P , 13-O ) :   1.0672
B( 11-P , 16-O ) :   1.1257 B( 13-O , 14-C ) :   0.9036 B( 14-C , 15-C ) :   1.1664
B( 14-C , 31-H ) :   0.9253 B( 14-C , 32-H ) :   0.9033 B( 15-C , 33-H ) :   0.9391
B( 15-C , 34-H ) :   0.9380 B( 15-C , 35-H ) :   0.9428 B( 16-O , 17-C ) :   0.9068
B( 17-C , 18-C ) :   1.1664 B( 17-C , 36-H ) :   0.9351 B( 17-C , 37-H ) :   0.9202
B( 18-C , 38-H ) :   0.9456 B( 18-C , 39-H ) :   0.9382 B( 18-C , 40-H ) :   0.9334

Dispersion correction           -0.065676384
FINAL SINGLE POINT ENERGY     -2929.524048686472

DIPOLE MOMENT
-------------

Method             : SCF
Type of density    : Electron Density
Multiplicity       :   1
Irrep              :   0
Energy             : -2929.6439128979477573 Eh
Relativity type    :
Basis              : AO
                                X                 Y                 Z
Electronic contribution:     10.560126256     -10.743581869     -15.662975766
Nuclear contribution   :    -11.021175169      11.796226475      17.456032116
                        -----------------------------------------
Total Dipole Moment    :     -0.461048914       1.052644606       1.793056349
                        -----------------------------------------
Magnitude (a.u.)       :      2.129713089
Magnitude (Debye)      :      5.413300469

Rotational constants in cm-1:             0.013874             0.004572             0.004507
Rotational constants in MHz :           415.921017           137.066777           135.106358

                             ****ORCA TERMINATED NORMALLY****
TOTAL RUN TIME: 0 days 0 hours 0 minutes 21 seconds 487 msec
