                         Program Version 6.0.0  -   RELEASE  -
|  1> ! r2scan-3c def2/J RI DEFGRID2 scfconv6 printgap
|  2> %output
|  3>     printlevel normal
|  4> end
|  5> * xyz 0 1
|  6> C 5.3142735094 -1.573282326 -1.383308537
|  7> C 3.8967059743 -1.5709556974 -1.9220812927
|  8> O 2.9450894919 -1.7157685119 -0.8475338003
|  9> P 2.2048534375 -0.4697700474 -0.1924222971
| 10> S 3.3507104203 1.0430071466 0.3135472245
| 11> O 1.4073195374 -1.1791944371 0.9724708925
| 12> C 1.9515902894 -1.3095880774 2.3096170558
| 13> C 1.4258379278 -0.2135344142 3.2144960241
| 14> S 0.6707044946 -0.0401558736 -1.580300941
| 15> C 0.1650382005 1.5314315289 -0.8283340912
| 16> S -0.7579942362 1.3056103543 0.7076832735
| 17> P -2.4837975006 0.4373925646 -0.1999151049
| 18> S -3.0161592293 1.2014227842 -1.9177527181
| 19> O -3.5735538634 0.4726920374 0.9582799941
| 20> C -4.4496366394 1.5957326201 1.1713383294
| 21> C -3.700603871 2.8397802386 1.6019035457
| 22> O -2.1825533331 -1.106174326 -0.3097639326
| 23> C -1.8986026436 -1.9457564661 0.8377191517
| 24> C -1.2387943059 -3.2103509319 0.3295464468
| 25> H 5.4742835402 -0.7085718112 -0.7429325359
| 26> H 5.4927854172 -2.4768205315 -0.8072468681
| 27> H 6.0120524524 -1.5319194432 -2.2133667002
| 28> H 3.7150593174 -2.428677938 -2.572186794
| 29> H 3.6869275277 -0.6483100434 -2.4704535957
| 30> H 1.6266184209 -2.2966211021 2.6415272467
| 31> H 3.0427549999 -1.2787861438 2.2574393108
| 32> H 1.7584647238 0.7593296234 2.8590577284
| 33> H 0.3396735556 -0.2194329333 3.2318702992
| 34> H 1.8028722025 -0.3714059349 4.2197498303
| 35> H -0.4668587094 2.037299162 -1.5585034641
| 36> H 1.0507928386 2.1202642038 -0.5875977908
| 37> H -5.0019485791 1.7805261034 0.2451541573
| 38> H -5.1314253165 1.2460865891 1.9478938067
| 39> H -3.0621843579 2.6232723757 2.4547523741
| 40> H -3.0823125133 3.2048217697 0.7832467752
| 41> H -4.4149409966 3.6109118663 1.8718643519
| 42> H -1.2400251223 -1.3970680201 1.5170281104
| 43> H -2.845309056 -2.1547144344 1.3392954247
| 44> H -1.8751621656 -3.6891829656 -0.409180569
| 45> H -0.283132726 -2.9746524015 -0.1329059849
| 46> H -1.0773586445 -3.8880932506 1.1616385868
| 47> *
| 48>
| 49>                          ****END OF INPUT****

CARTESIAN COORDINATES (ANGSTROEM)
---------------------------------
  C      5.314274   -1.573282   -1.383309
  C      3.896706   -1.570956   -1.922081
  O      2.945089   -1.715769   -0.847534
  P      2.204853   -0.469770   -0.192422
  S      3.350710    1.043007    0.313547
  O      1.407320   -1.179194    0.972471
  C      1.951590   -1.309588    2.309617
  C      1.425838   -0.213534    3.214496
  S      0.670704   -0.040156   -1.580301
  C      0.165038    1.531432   -0.828334
  S     -0.757994    1.305610    0.707683
  P     -2.483798    0.437393   -0.199915
  S     -3.016159    1.201423   -1.917753
  O     -3.573554    0.472692    0.958280
  C     -4.449637    1.595733    1.171338
  C     -3.700604    2.839780    1.601904
  O     -2.182553   -1.106174   -0.309764
  C     -1.898603   -1.945756    0.837719
  C     -1.238794   -3.210351    0.329546
  H      5.474284   -0.708572   -0.742933
  H      5.492785   -2.476821   -0.807247
  H      6.012052   -1.531919   -2.213367
  H      3.715059   -2.428678   -2.572187
  H      3.686928   -0.648310   -2.470454
  H      1.626618   -2.296621    2.641527
  H      3.042755   -1.278786    2.257439
  H      1.758465    0.759330    2.859058
  H      0.339674   -0.219433    3.231870
  H      1.802872   -0.371406    4.219750
  H     -0.466859    2.037299   -1.558503
  H      1.050793    2.120264   -0.587598
  H     -5.001949    1.780526    0.245154
  H     -5.131425    1.246087    1.947894
  H     -3.062184    2.623272    2.454752
  H     -3.082313    3.204822    0.783247
  H     -4.414941    3.610912    1.871864
  H     -1.240025   -1.397068    1.517028
  H     -2.845309   -2.154714    1.339295
  H     -1.875162   -3.689183   -0.409181
  H     -0.283133   -2.974652   -0.132906
  H     -1.077359   -3.888093    1.161639

 Total Charge           Charge          ....    0
 Multiplicity           Mult            ....    1
 Number of Electrons    NEL             ....  202
 Basis Dimension        Dim             ....  539

ORBITAL ENERGIES
----------------

  NO   OCC          E(Eh)            E(eV)
   0   2.0000     -88.575830     -2410.2709
   1   2.0000     -88.572843     -2410.1896
   2   2.0000     -88.523422     -2408.8448
   3   2.0000     -88.519842     -2408.7473
   4   2.0000     -76.917178     -2093.0228
   5   2.0000     -76.912914     -2092.9068
   6   2.0000     -18.994958      -516.8791
   7   2.0000     -18.994821      -516.8754
   8   2.0000     -18.994732      -516.8729
   9   2.0000     -18.987472      -516.6754
  10   2.0000     -10.105031      -274.9719
  11   2.0000     -10.102654      -274.9072
  12   2.0000     -10.102520      -274.9035
  13   2.0000     -10.101049      -274.8635
  14   2.0000     -10.098110      -274.7835
  15   2.0000     -10.029858      -272.9263
  16   2.0000     -10.029790      -272.9245
  17   2.0000     -10.028350      -272.8853
  18   2.0000     -10.027951      -272.8744
  19   2.0000      -7.869947      -214.1521
  20   2.0000      -7.867367      -214.0819
  21   2.0000      -7.818329      -212.7475
  22   2.0000      -7.814596      -212.6460
  23   2.0000      -6.595634      -179.4763
  24   2.0000      -6.591408      -179.3613
  25   2.0000      -5.816851      -158.2846
  26   2.0000      -5.814160      -158.2113
  27   2.0000      -5.813824      -158.2022
  28   2.0000      -5.811226      -158.1315
  29   2.0000      -5.807049      -158.0178
  30   2.0000      -5.804518      -157.9490
  31   2.0000      -5.765925      -156.8988
  32   2.0000      -5.762274      -156.7994
  33   2.0000      -5.758622      -156.7001
  34   2.0000      -5.758352      -156.6927
  35   2.0000      -5.754843      -156.5972
  36   2.0000      -5.754604      -156.5907
  37   2.0000      -4.741183      -129.0142
  38   2.0000      -4.740510      -128.9958
  39   2.0000      -4.739371      -128.9648
  40   2.0000      -4.737295      -128.9083
  41   2.0000      -4.736246      -128.8798
  42   2.0000      -4.734894      -128.8430
  43   2.0000      -1.053448       -28.6658
  44   2.0000      -1.050604       -28.5884
  45   2.0000      -1.013805       -27.5870
  46   2.0000      -1.008839       -27.4519
  47   2.0000      -0.802128       -21.8270
  48   2.0000      -0.760507       -20.6945
  49   2.0000      -0.751374       -20.4459
  50   2.0000      -0.733525       -19.9602
  51   2.0000      -0.733112       -19.9490
  52   2.0000      -0.712039       -19.3756
  53   2.0000      -0.686188       -18.6721
  54   2.0000      -0.669331       -18.2134
  55   2.0000      -0.630157       -17.1474
  56   2.0000      -0.622783       -16.9468
  57   2.0000      -0.609000       -16.5717
  58   2.0000      -0.602678       -16.3997
  59   2.0000      -0.590662       -16.0727
  60   2.0000      -0.535079       -14.5602
  61   2.0000      -0.526575       -14.3288
  62   2.0000      -0.499395       -13.5892
  63   2.0000      -0.494070       -13.4443
  64   2.0000      -0.477788       -13.0013
  65   2.0000      -0.465706       -12.6725
  66   2.0000      -0.458497       -12.4763
  67   2.0000      -0.454579       -12.3697
  68   2.0000      -0.447389       -12.1741
  69   2.0000      -0.437153       -11.8955
  70   2.0000      -0.422616       -11.5000
  71   2.0000      -0.418782       -11.3956
  72   2.0000      -0.407432       -11.0868
  73   2.0000      -0.403896       -10.9906
  74   2.0000      -0.392990       -10.6938
  75   2.0000      -0.387056       -10.5323
  76   2.0000      -0.381678       -10.3860
  77   2.0000      -0.379101       -10.3159
  78   2.0000      -0.370507       -10.0820
  79   2.0000      -0.367106        -9.9895
  80   2.0000      -0.365367        -9.9421
  81   2.0000      -0.359390        -9.7795
  82   2.0000      -0.356356        -9.6969
  83   2.0000      -0.352905        -9.6030
  84   2.0000      -0.348553        -9.4846
  85   2.0000      -0.331601        -9.0233
  86   2.0000      -0.324076        -8.8186
  87   2.0000      -0.316741        -8.6189
  88   2.0000      -0.315584        -8.5875
  89   2.0000      -0.310562        -8.4508
  90   2.0000      -0.308131        -8.3847
  91   2.0000      -0.296532        -8.0690
  92   2.0000      -0.284051        -7.7294
  93   2.0000      -0.279973        -7.6185
  94   2.0000      -0.273055        -7.4302
  95   2.0000      -0.246923        -6.7191
  96   2.0000      -0.232878        -6.3369
  97   2.0000      -0.225793        -6.1442
  98   2.0000      -0.218058        -5.9337
  99   2.0000      -0.216004        -5.8778
 100   2.0000      -0.213145        -5.8000
 101   0.0000      -0.046639        -1.2691
 102   0.0000      -0.025092        -0.6828
 103   0.0000      -0.004183        -0.1138
 104   0.0000      -0.001512        -0.0411
 105   0.0000       0.013235         0.3601

MULLIKEN ATOMIC CHARGES
-----------------------
   0 C :   -0.456093
   1 C :   -0.123914
   2 O :   -0.303107
   3 P :    0.641677
   4 S :   -0.478983
   5 O :   -0.253450
   6 C :   -0.135239
   7 C :   -0.447725
   8 S :   -0.109599
   9 C :   -0.241194
  10 S :   -0.157802
  11 P :    0.647549
  12 S :   -0.444266
  13 O :   -0.293607
  14 C :   -0.164240
  15 C :   -0.446674
  16 O :   -0.255257
  17 C :   -0.104312
  18 C :   -0.464114
  19 H :    0.180384
  20 H :    0.150992
  21 H :    0.146020
  22 H :    0.151354
  23 H :    0.155026
  24 H :    0.152864
  25 H :    0.157727
  26 H :    0.182894
  27 H :    0.148601
  28 H :    0.146247
  29 H :    0.221100
  30 H :    0.212779
  31 H :    0.174331
  32 H :    0.147790
  33 H :    0.152898
  34 H :    0.180893
  35 H :    0.148188
  36 H :    0.155440
  37 H :    0.154224
  38 H :    0.155027
  39 H :    0.174739
  40 H :    0.140835
Sum of atomic charges:    0.0000000

LOEWDIN ATOMIC CHARGES
----------------------
   0 C :   -0.400171
   1 C :    0.022948
   2 O :   -0.660959
   3 P :    0.371414
   4 S :   -0.135189
   5 O :   -0.678120
   6 C :    0.023862
   7 C :   -0.405983
   8 S :    0.184915
   9 C :   -0.423521
  10 S :    0.145265
  11 P :    0.377956
  12 S :   -0.103015
  13 O :   -0.666501
  14 C :    0.022852
  15 C :   -0.408817
  16 O :   -0.654771
  17 C :    0.023477
  18 C :   -0.388209
  19 H :    0.168067
  20 H :    0.157888
  21 H :    0.158907
  22 H :    0.178702
  23 H :    0.177150
  24 H :    0.178102
  25 H :    0.178435
  26 H :    0.168846
  27 H :    0.156747
  28 H :    0.158282
  29 H :    0.192410
  30 H :    0.192508
  31 H :    0.180413
  32 H :    0.179413
  33 H :    0.159568
  34 H :    0.166972
  35 H :    0.159622
  36 H :    0.177973
  37 H :    0.172760
  38 H :    0.161959
  39 H :    0.169214
  40 H :    0.158629

  Mayer bond orders larger than 0.100000
B(  0-C ,  1-C ) :   0.9568 B(  0-C , 19-H ) :   0.9588 B(  0-C , 20-H ) :   0.9752
B(  0-C , 21-H ) :   0.9642 B(  1-C ,  2-O ) :   0.7716 B(  1-C , 22-H ) :   0.9624
B(  1-C , 23-H ) :   0.9617 B(  2-O ,  3-P ) :   1.0708 B(  3-P ,  4-S ) :   1.7573
B(  3-P ,  5-O ) :   1.1401 B(  3-P ,  8-S ) :   1.1200 B(  5-O ,  6-C ) :   0.7447
B(  6-C ,  7-C ) :   0.9382 B(  6-C , 24-H ) :   0.9640 B(  6-C , 25-H ) :   0.9630
B(  7-C , 26-H ) :   0.9613 B(  7-C , 27-H ) :   0.9687 B(  7-C , 28-H ) :   0.9638
B(  8-S ,  9-C ) :   0.9036 B(  9-C , 10-S ) :   0.9089 B(  9-C , 29-H ) :   0.9050
B(  9-C , 30-H ) :   0.9033 B( 10-S , 11-P ) :   0.9980 B( 11-P , 12-S ) :   1.8360
B( 11-P , 13-O ) :   1.0360 B( 11-P , 16-O ) :   1.1684 B( 13-O , 14-C ) :   0.8192
B( 14-C , 15-C ) :   0.9181 B( 14-C , 31-H ) :   0.9689 B( 14-C , 32-H ) :   0.9613
B( 15-C , 33-H ) :   0.9677 B( 15-C , 34-H ) :   0.9630 B( 15-C , 35-H ) :   0.9561
B( 16-O , 17-C ) :   0.7365 B( 17-C , 18-C ) :   0.9382 B( 17-C , 36-H ) :   0.9513
B( 17-C , 37-H ) :   0.9434 B( 18-C , 38-H ) :   0.9699 B( 18-C , 39-H ) :   0.9676
B( 18-C , 40-H ) :   0.9685

Dispersion correction           -0.021814141
FINAL SINGLE POINT ENERGY     -2932.464657482535

DIPOLE MOMENT
-------------

Method             : SCF
Type of density    : Electron Density
Multiplicity       :   1
Irrep              :   0
Energy             : -2932.4891947318833445 Eh
Relativity type    :
Basis              : AO
                                X                 Y                 Z
Electronic contribution:     -5.201273170       7.387114664     -13.210318541
Nuclear contribution   :      5.401525938      -8.269897549      14.540193724
                        -----------------------------------------
Total Dipole Moment    :      0.200252769      -0.882782885       1.329875183
                        -----------------------------------------
Magnitude (a.u.)       :      1.608718370
Magnitude (Debye)      :      4.089037136

Rotational constants in cm-1:             0.013430             0.004743             0.004658
Rotational constants in MHz :           402.622624           142.181780           139.640724

                             ****ORCA TERMINATED NORMALLY****
TOTAL RUN TIME: 0 days 0 hours 1 minutes 19 seconds 936 msec
