                         Program Version 6.0.0  -   RELEASE  -
|  1> ! r2scan-3c def2/J RI DEFGRID2 scfconv6 printgap
|  2> %output
|  3>     printlevel normal
|  4> end
|  5> %cpcm
|  6>     smd true
|  7>     smdsolvent "water"
|  8> end
|  9> * xyz 0 1
| 10> C 5.3142735094 -1.573282326 -1.383308537
| 11> C 3.8967059743 -1.5709556974 -1.9220812927
| 12> O 2.9450894919 -1.7157685119 -0.8475338003
| 13> P 2.2048534375 -0.4697700474 -0.1924222971
| 14> S 3.3507104203 1.0430071466 0.3135472245
| 15> O 1.4073195374 -1.1791944371 0.9724708925
| 16> C 1.9515902894 -1.3095880774 2.3096170558
| 17> C 1.4258379278 -0.2135344142 3.2144960241
| 18> S 0.6707044946 -0.0401558736 -1.580300941
| 19> C 0.1650382005 1.5314315289 -0.8283340912
| 20> S -0.7579942362 1.3056103543 0.7076832735
| 21> P -2.4837975006 0.4373925646 -0.1999151049
| 22> S -3.0161592293 1.2014227842 -1.9177527181
| 23> O -3.5735538634 0.4726920374 0.9582799941
| 24> C -4.4496366394 1.5957326201 1.1713383294
| 25> C -3.700603871 2.8397802386 1.6019035457
| 26> O -2.1825533331 -1.106174326 -0.3097639326
| 27> C -1.8986026436 -1.9457564661 0.8377191517
| 28> C -1.2387943059 -3.2103509319 0.3295464468
| 29> H 5.4742835402 -0.7085718112 -0.7429325359
| 30> H 5.4927854172 -2.4768205315 -0.8072468681
| 31> H 6.0120524524 -1.5319194432 -2.2133667002
| 32> H 3.7150593174 -2.428677938 -2.572186794
| 33> H 3.6869275277 -0.6483100434 -2.4704535957
| 34> H 1.6266184209 -2.2966211021 2.6415272467
| 35> H 3.0427549999 -1.2787861438 2.2574393108
| 36> H 1.7584647238 0.7593296234 2.8590577284
| 37> H 0.3396735556 -0.2194329333 3.2318702992
| 38> H 1.8028722025 -0.3714059349 4.2197498303
| 39> H -0.4668587094 2.037299162 -1.5585034641
| 40> H 1.0507928386 2.1202642038 -0.5875977908
| 41> H -5.0019485791 1.7805261034 0.2451541573
| 42> H -5.1314253165 1.2460865891 1.9478938067
| 43> H -3.0621843579 2.6232723757 2.4547523741
| 44> H -3.0823125133 3.2048217697 0.7832467752
| 45> H -4.4149409966 3.6109118663 1.8718643519
| 46> H -1.2400251223 -1.3970680201 1.5170281104
| 47> H -2.845309056 -2.1547144344 1.3392954247
| 48> H -1.8751621656 -3.6891829656 -0.409180569
| 49> H -0.283132726 -2.9746524015 -0.1329059849
| 50> H -1.0773586445 -3.8880932506 1.1616385868
| 51> *
| 52>
| 53>                          ****END OF INPUT****

CARTESIAN COORDINATES (ANGSTROEM)
---------------------------------
  C      5.314274   -1.573282   -1.383309
  C      3.896706   -1.570956   -1.922081
  O      2.945089   -1.715769   -0.847534
  P      2.204853   -0.469770   -0.192422
  S      3.350710    1.043007    0.313547
  O      1.407320   -1.179194    0.972471
  C      1.951590   -1.309588    2.309617
  C      1.425838   -0.213534    3.214496
  S      0.670704   -0.040156   -1.580301
  C      0.165038    1.531432   -0.828334
  S     -0.757994    1.305610    0.707683
  P     -2.483798    0.437393   -0.199915
  S     -3.016159    1.201423   -1.917753
  O     -3.573554    0.472692    0.958280
  C     -4.449637    1.595733    1.171338
  C     -3.700604    2.839780    1.601904
  O     -2.182553   -1.106174   -0.309764
  C     -1.898603   -1.945756    0.837719
  C     -1.238794   -3.210351    0.329546
  H      5.474284   -0.708572   -0.742933
  H      5.492785   -2.476821   -0.807247
  H      6.012052   -1.531919   -2.213367
  H      3.715059   -2.428678   -2.572187
  H      3.686928   -0.648310   -2.470454
  H      1.626618   -2.296621    2.641527
  H      3.042755   -1.278786    2.257439
  H      1.758465    0.759330    2.859058
  H      0.339674   -0.219433    3.231870
  H      1.802872   -0.371406    4.219750
  H     -0.466859    2.037299   -1.558503
  H      1.050793    2.120264   -0.587598
  H     -5.001949    1.780526    0.245154
  H     -5.131425    1.246087    1.947894
  H     -3.062184    2.623272    2.454752
  H     -3.082313    3.204822    0.783247
  H     -4.414941    3.610912    1.871864
  H     -1.240025   -1.397068    1.517028
  H     -2.845309   -2.154714    1.339295
  H     -1.875162   -3.689183   -0.409181
  H     -0.283133   -2.974652   -0.132906
  H     -1.077359   -3.888093    1.161639

 Total Charge           Charge          ....    0
 Multiplicity           Mult            ....    1
 Number of Electrons    NEL             ....  202
 Basis Dimension        Dim             ....  539

ORBITAL ENERGIES
----------------

  NO   OCC          E(Eh)            E(eV)
   0   2.0000     -88.579791     -2410.3786
   1   2.0000     -88.575785     -2410.2697
   2   2.0000     -88.530691     -2409.0426
   3   2.0000     -88.527651     -2408.9598
   4   2.0000     -76.919689     -2093.0911
   5   2.0000     -76.919676     -2093.0908
   6   2.0000     -18.996545      -516.9223
   7   2.0000     -18.995103      -516.8830
   8   2.0000     -18.992989      -516.8255
   9   2.0000     -18.992524      -516.8128
  10   2.0000     -10.103182      -274.9216
  11   2.0000     -10.091341      -274.5993
  12   2.0000     -10.090953      -274.5888
  13   2.0000     -10.090911      -274.5877
  14   2.0000     -10.090635      -274.5802
  15   2.0000     -10.019032      -272.6317
  16   2.0000     -10.018713      -272.6230
  17   2.0000     -10.016941      -272.5748
  18   2.0000     -10.016088      -272.5516
  19   2.0000      -7.874038      -214.2635
  20   2.0000      -7.870233      -214.1599
  21   2.0000      -7.825813      -212.9512
  22   2.0000      -7.822828      -212.8700
  23   2.0000      -6.598220      -179.5467
  24   2.0000      -6.598131      -179.5443
  25   2.0000      -5.820889      -158.3944
  26   2.0000      -5.817890      -158.3128
  27   2.0000      -5.817066      -158.2904
  28   2.0000      -5.814119      -158.2102
  29   2.0000      -5.811213      -158.1311
  30   2.0000      -5.807328      -158.0254
  31   2.0000      -5.773369      -157.1013
  32   2.0000      -5.770383      -157.0201
  33   2.0000      -5.766028      -156.9016
  34   2.0000      -5.765903      -156.8982
  35   2.0000      -5.763135      -156.8229
  36   2.0000      -5.762829      -156.8145
  37   2.0000      -4.744058      -129.0924
  38   2.0000      -4.743605      -129.0801
  39   2.0000      -4.743011      -129.0639
  40   2.0000      -4.743010      -129.0639
  41   2.0000      -4.741975      -129.0357
  42   2.0000      -4.741833      -129.0318
  43   2.0000      -1.053835       -28.6763
  44   2.0000      -1.052043       -28.6275
  45   2.0000      -1.011882       -27.5347
  46   2.0000      -1.011498       -27.5243
  47   2.0000      -0.804337       -21.8871
  48   2.0000      -0.756752       -20.5923
  49   2.0000      -0.745233       -20.2788
  50   2.0000      -0.725417       -19.7396
  51   2.0000      -0.721917       -19.6443
  52   2.0000      -0.710849       -19.3432
  53   2.0000      -0.689350       -18.7582
  54   2.0000      -0.674819       -18.3628
  55   2.0000      -0.627372       -17.0717
  56   2.0000      -0.617303       -16.7977
  57   2.0000      -0.600161       -16.3312
  58   2.0000      -0.598729       -16.2922
  59   2.0000      -0.587988       -16.0000
  60   2.0000      -0.529941       -14.4204
  61   2.0000      -0.522261       -14.2114
  62   2.0000      -0.492772       -13.4090
  63   2.0000      -0.490642       -13.3510
  64   2.0000      -0.478552       -13.0221
  65   2.0000      -0.458940       -12.4884
  66   2.0000      -0.453792       -12.3483
  67   2.0000      -0.449390       -12.2285
  68   2.0000      -0.440389       -11.9836
  69   2.0000      -0.433861       -11.8060
  70   2.0000      -0.419055       -11.4031
  71   2.0000      -0.413512       -11.2522
  72   2.0000      -0.406782       -11.0691
  73   2.0000      -0.398259       -10.8372
  74   2.0000      -0.391314       -10.6482
  75   2.0000      -0.382771       -10.4157
  76   2.0000      -0.379666       -10.3312
  77   2.0000      -0.373209       -10.1555
  78   2.0000      -0.362932        -9.8759
  79   2.0000      -0.358516        -9.7557
  80   2.0000      -0.356746        -9.7075
  81   2.0000      -0.351771        -9.5722
  82   2.0000      -0.349583        -9.5126
  83   2.0000      -0.347728        -9.4622
  84   2.0000      -0.343300        -9.3417
  85   2.0000      -0.328193        -8.9306
  86   2.0000      -0.319963        -8.7066
  87   2.0000      -0.315766        -8.5924
  88   2.0000      -0.307854        -8.3771
  89   2.0000      -0.306375        -8.3369
  90   2.0000      -0.302284        -8.2256
  91   2.0000      -0.291503        -7.9322
  92   2.0000      -0.282980        -7.7003
  93   2.0000      -0.279409        -7.6031
  94   2.0000      -0.274929        -7.4812
  95   2.0000      -0.250405        -6.8139
  96   2.0000      -0.239500        -6.5171
  97   2.0000      -0.234356        -6.3772
  98   2.0000      -0.225271        -6.1299
  99   2.0000      -0.223535        -6.0827
 100   2.0000      -0.219334        -5.9684
 101   0.0000      -0.051367        -1.3978
 102   0.0000      -0.030737        -0.8364
 103   0.0000      -0.007397        -0.2013
 104   0.0000      -0.005567        -0.1515
 105   0.0000       0.013800         0.3755

MULLIKEN ATOMIC CHARGES
-----------------------
   0 C :   -0.492418
   1 C :   -0.122049
   2 O :   -0.328815
   3 P :    0.678410
   4 S :   -0.519613
   5 O :   -0.274145
   6 C :   -0.129721
   7 C :   -0.488001
   8 S :   -0.139157
   9 C :   -0.250662
  10 S :   -0.148160
  11 P :    0.660150
  12 S :   -0.500883
  13 O :   -0.313034
  14 C :   -0.157185
  15 C :   -0.483844
  16 O :   -0.285111
  17 C :   -0.106965
  18 C :   -0.503924
  19 H :    0.171297
  20 H :    0.166692
  21 H :    0.169704
  22 H :    0.176541
  23 H :    0.164606
  24 H :    0.179498
  25 H :    0.170532
  26 H :    0.172533
  27 H :    0.166182
  28 H :    0.169581
  29 H :    0.236556
  30 H :    0.231589
  31 H :    0.179474
  32 H :    0.175780
  33 H :    0.168740
  34 H :    0.174434
  35 H :    0.172872
  36 H :    0.175148
  37 H :    0.175307
  38 H :    0.166336
  39 H :    0.169669
  40 H :    0.172057
Sum of atomic charges:    0.0000000

LOEWDIN ATOMIC CHARGES
----------------------
   0 C :   -0.404372
   1 C :    0.027310
   2 O :   -0.672575
   3 P :    0.377638
   4 S :   -0.160461
   5 O :   -0.683904
   6 C :    0.030769
   7 C :   -0.409321
   8 S :    0.166822
   9 C :   -0.419486
  10 S :    0.154965
  11 P :    0.380181
  12 S :   -0.145915
  13 O :   -0.672279
  14 C :    0.028697
  15 C :   -0.411300
  16 O :   -0.678000
  17 C :    0.029136
  18 C :   -0.392535
  19 H :    0.162524
  20 H :    0.162493
  21 H :    0.167596
  22 H :    0.189339
  23 H :    0.180309
  24 H :    0.190061
  25 H :    0.182159
  26 H :    0.162496
  27 H :    0.161554
  28 H :    0.166568
  29 H :    0.196660
  30 H :    0.197886
  31 H :    0.181702
  32 H :    0.191511
  33 H :    0.163707
  34 H :    0.161987
  35 H :    0.168666
  36 H :    0.184973
  37 H :    0.182427
  38 H :    0.164148
  39 H :    0.165006
  40 H :    0.170859

  Mayer bond orders larger than 0.100000
B(  0-C ,  1-C ) :   0.9473 B(  0-C , 19-H ) :   0.9626 B(  0-C , 20-H ) :   0.9718
B(  0-C , 21-H ) :   0.9595 B(  1-C ,  2-O ) :   0.7588 B(  1-C , 22-H ) :   0.9524
B(  1-C , 23-H ) :   0.9562 B(  2-O ,  3-P ) :   1.0750 B(  3-P ,  4-S ) :   1.7275
B(  3-P ,  5-O ) :   1.1535 B(  3-P ,  8-S ) :   1.1194 B(  5-O ,  6-C ) :   0.7321
B(  6-C ,  7-C ) :   0.9234 B(  6-C , 24-H ) :   0.9526 B(  6-C , 25-H ) :   0.9609
B(  7-C , 26-H ) :   0.9654 B(  7-C , 27-H ) :   0.9667 B(  7-C , 28-H ) :   0.9593
B(  8-S ,  9-C ) :   0.8917 B(  9-C , 10-S ) :   0.9001 B(  9-C , 29-H ) :   0.9008
B(  9-C , 30-H ) :   0.9005 B( 10-S , 11-P ) :   1.0134 B( 11-P , 12-S ) :   1.8109
B( 11-P , 13-O ) :   1.0481 B( 11-P , 16-O ) :   1.1740 B( 13-O , 14-C ) :   0.8067
B( 14-C , 15-C ) :   0.9062 B( 14-C , 31-H ) :   0.9674 B( 14-C , 32-H ) :   0.9504
B( 15-C , 33-H ) :   0.9646 B( 15-C , 34-H ) :   0.9649 B( 15-C , 35-H ) :   0.9509
B( 16-O , 17-C ) :   0.7250 B( 17-C , 18-C ) :   0.9274 B( 17-C , 36-H ) :   0.9438
B( 17-C , 37-H ) :   0.9339 B( 18-C , 38-H ) :   0.9686 B( 18-C , 39-H ) :   0.9686
B( 18-C , 40-H ) :   0.9610

Dispersion correction           -0.021814141
FINAL SINGLE POINT ENERGY     -2932.473365823121

DIPOLE MOMENT
-------------

Method             : SCF
Type of density    : Electron Density
Multiplicity       :   1
Irrep              :   0
Energy             : -2932.4979030724693985 Eh
Relativity type    :
Basis              : AO
                                X                 Y                 Z
Electronic contribution:     -5.147455031       7.156135853     -12.543084047
Nuclear contribution   :      5.401525938      -8.269897549      14.540193724
                        -----------------------------------------
Total Dipole Moment    :      0.254070907      -1.113761696       1.997109676
                        -----------------------------------------
Magnitude (a.u.)       :      2.300752964
Magnitude (Debye)      :      5.848049282

Rotational constants in cm-1:             0.013430             0.004743             0.004658
Rotational constants in MHz :           402.622624           142.181780           139.640724

                             ****ORCA TERMINATED NORMALLY****
TOTAL RUN TIME: 0 days 0 hours 1 minutes 57 seconds 70 msec
