                         Program Version 6.0.0  -   RELEASE  -
|  1> ! pbe def2-sv(p) def2/J RI DEFGRID1 loosescf d4 GCP(DFT/SV(P)) printgap
|  2> %output
|  3>     printlevel normal
|  4> end
|  5> * xyz 0 1
|  6> C 2.7247234767 1.2371090401 -3.0937782058
|  7> C 2.8918113426 1.2896639501 -1.5901468466
|  8> O 2.5395219205 -0.0041064907 -1.0566406718
|  9> P 2.163191226 -0.2388692733 0.4629819766
| 10> S 1.0974369849 1.2100473426 1.2562782108
| 11> O 3.6010923984 -0.4375015261 1.1126752811
| 12> C 3.8837212671 -1.1326768205 2.3428946188
| 13> C 2.9452543429 -0.7564048072 3.4699944512
| 14> S 1.4078471192 -2.2005681011 0.3669563037
| 15> C -0.1753900765 -1.891578405 -0.4549096267
| 16> S -1.4238862034 -1.1594611474 0.6508065293
| 17> P -2.1032063323 0.3829036175 -0.6568063159
| 18> S -0.797136551 1.0900984087 -1.9282569519
| 19> O -2.8843011576 1.3643203 0.3138023909
| 20> C -2.3233138342 2.1889626806 1.351081914
| 21> C -1.7784003001 3.4856993835 0.7886511365
| 22> O -3.2984050299 -0.2347387726 -1.4777412681
| 23> C -4.4571923536 -0.8676536663 -0.87690021
| 24> C -4.396614652 -2.3689367734 -1.0782399355
| 25> H 1.678012819 1.0800478351 -3.3438133836
| 26> H 3.0536380988 2.1789817345 -3.5199066925
| 27> H 3.3166740569 0.4245283637 -3.5044062087
| 28> H 2.2345398321 2.0437705318 -1.1441088098
| 29> H 3.9259021856 1.4974433737 -1.30503852
| 30> H 3.8310375118 -2.2052836698 2.1371960533
| 31> H 4.9131896694 -0.8482482696 2.5682570178
| 32> H 1.9262642036 -1.0563015816 3.2258832356
| 33> H 3.254049221 -1.2632220209 4.3785880653
| 34> H 2.9582349217 0.3187447012 3.6342098258
| 35> H -0.5262734096 -2.8664182928 -0.7832186037
| 36> H -0.0214874279 -1.2151676222 -1.3001297089
| 37> H -3.1630775459 2.3692195139 2.0247996849
| 38> H -1.5390775728 1.6371304143 1.8750379562
| 39> H -2.5453661539 4.0027318277 0.2181640681
| 40> H -1.4432974257 4.115302172 1.606207655
| 41> H -0.9301680628 3.282726757 0.1378396137
| 42> H -4.5003031048 -0.6077894296 0.1824262483
| 43> H -5.3110187478 -0.4308706452 -1.3969880009
| 44> H -3.5772034205 -2.7982969096 -0.5072340186
| 45> H -5.3300002043 -2.8081667422 -0.7408146129
| 46> H -4.2536623196 -2.5962977867 -2.1309938693
| 47> *
| 48>
| 49>                          ****END OF INPUT****

CARTESIAN COORDINATES (ANGSTROEM)
---------------------------------
  C      2.724723    1.237109   -3.093778
  C      2.891811    1.289664   -1.590147
  O      2.539522   -0.004106   -1.056641
  P      2.163191   -0.238869    0.462982
  S      1.097437    1.210047    1.256278
  O      3.601092   -0.437502    1.112675
  C      3.883721   -1.132677    2.342895
  C      2.945254   -0.756405    3.469994
  S      1.407847   -2.200568    0.366956
  C     -0.175390   -1.891578   -0.454910
  S     -1.423886   -1.159461    0.650807
  P     -2.103206    0.382904   -0.656806
  S     -0.797137    1.090098   -1.928257
  O     -2.884301    1.364320    0.313802
  C     -2.323314    2.188963    1.351082
  C     -1.778400    3.485699    0.788651
  O     -3.298405   -0.234739   -1.477741
  C     -4.457192   -0.867654   -0.876900
  C     -4.396615   -2.368937   -1.078240
  H      1.678013    1.080048   -3.343813
  H      3.053638    2.178982   -3.519907
  H      3.316674    0.424528   -3.504406
  H      2.234540    2.043771   -1.144109
  H      3.925902    1.497443   -1.305039
  H      3.831038   -2.205284    2.137196
  H      4.913190   -0.848248    2.568257
  H      1.926264   -1.056302    3.225883
  H      3.254049   -1.263222    4.378588
  H      2.958235    0.318745    3.634210
  H     -0.526273   -2.866418   -0.783219
  H     -0.021487   -1.215168   -1.300130
  H     -3.163078    2.369220    2.024800
  H     -1.539078    1.637130    1.875038
  H     -2.545366    4.002732    0.218164
  H     -1.443297    4.115302    1.606208
  H     -0.930168    3.282727    0.137840
  H     -4.500303   -0.607789    0.182426
  H     -5.311019   -0.430871   -1.396988
  H     -3.577203   -2.798297   -0.507234
  H     -5.330000   -2.808167   -0.740815
  H     -4.253662   -2.596298   -2.130994

 Total Charge           Charge          ....    0
 Multiplicity           Mult            ....    1
 Number of Electrons    NEL             ....  202
 Basis Dimension        Dim             ....  334

ORBITAL ENERGIES
----------------

  NO   OCC          E(Eh)            E(eV)
   0   2.0000     -88.045963     -2395.8525
   1   2.0000     -88.040001     -2395.6902
   2   2.0000     -87.981256     -2394.0917
   3   2.0000     -87.978029     -2394.0039
   4   2.0000     -76.423974     -2079.6021
   5   2.0000     -76.423012     -2079.5759
   6   2.0000     -18.793338      -511.3927
   7   2.0000     -18.787419      -511.2316
   8   2.0000     -18.784721      -511.1583
   9   2.0000     -18.781310      -511.0654
  10   2.0000      -9.957066      -270.9456
  11   2.0000      -9.956973      -270.9430
  12   2.0000      -9.954023      -270.8627
  13   2.0000      -9.949162      -270.7305
  14   2.0000      -9.940532      -270.4956
  15   2.0000      -9.886000      -269.0117
  16   2.0000      -9.881939      -268.9012
  17   2.0000      -9.874547      -268.7001
  18   2.0000      -9.874070      -268.6871
  19   2.0000      -7.691535      -209.2973
  20   2.0000      -7.684790      -209.1138
  21   2.0000      -7.626345      -207.5234
  22   2.0000      -7.622945      -207.4309
  23   2.0000      -6.421289      -174.7322
  24   2.0000      -6.420316      -174.7057
  25   2.0000      -5.719365      -155.6318
  26   2.0000      -5.715961      -155.5392
  27   2.0000      -5.712629      -155.4485
  28   2.0000      -5.709428      -155.3614
  29   2.0000      -5.708538      -155.3372
  30   2.0000      -5.701716      -155.1516
  31   2.0000      -5.655378      -153.8907
  32   2.0000      -5.651758      -153.7922
  33   2.0000      -5.647146      -153.6666
  34   2.0000      -5.646115      -153.6386
  35   2.0000      -5.643674      -153.5722
  36   2.0000      -5.643067      -153.5557
  37   2.0000      -4.644067      -126.3715
  38   2.0000      -4.643137      -126.3462
  39   2.0000      -4.642930      -126.3406
  40   2.0000      -4.642356      -126.3249
  41   2.0000      -4.641538      -126.3027
  42   2.0000      -4.640533      -126.2753
  43   2.0000      -0.985620       -26.8201
  44   2.0000      -0.980092       -26.6697
  45   2.0000      -0.940753       -25.5992
  46   2.0000      -0.938324       -25.5331
  47   2.0000      -0.762597       -20.7513
  48   2.0000      -0.720248       -19.5990
  49   2.0000      -0.708498       -19.2792
  50   2.0000      -0.686463       -18.6796
  51   2.0000      -0.684025       -18.6133
  52   2.0000      -0.672360       -18.2958
  53   2.0000      -0.648829       -17.6555
  54   2.0000      -0.634163       -17.2564
  55   2.0000      -0.589374       -16.0377
  56   2.0000      -0.583862       -15.8877
  57   2.0000      -0.573146       -15.5961
  58   2.0000      -0.571605       -15.5542
  59   2.0000      -0.557423       -15.1683
  60   2.0000      -0.503921       -13.7124
  61   2.0000      -0.497118       -13.5273
  62   2.0000      -0.474060       -12.8998
  63   2.0000      -0.466261       -12.6876
  64   2.0000      -0.452602       -12.3159
  65   2.0000      -0.444434       -12.0937
  66   2.0000      -0.440152       -11.9772
  67   2.0000      -0.432126       -11.7587
  68   2.0000      -0.424657       -11.5555
  69   2.0000      -0.416620       -11.3368
  70   2.0000      -0.412374       -11.2213
  71   2.0000      -0.397347       -10.8124
  72   2.0000      -0.395836       -10.7712
  73   2.0000      -0.383500       -10.4356
  74   2.0000      -0.376489       -10.2448
  75   2.0000      -0.365559        -9.9474
  76   2.0000      -0.357649        -9.7321
  77   2.0000      -0.353765        -9.6264
  78   2.0000      -0.348272        -9.4770
  79   2.0000      -0.346270        -9.4225
  80   2.0000      -0.343320        -9.3422
  81   2.0000      -0.341024        -9.2797
  82   2.0000      -0.338258        -9.2045
  83   2.0000      -0.331782        -9.0283
  84   2.0000      -0.323966        -8.8155
  85   2.0000      -0.316258        -8.6058
  86   2.0000      -0.308724        -8.4008
  87   2.0000      -0.296342        -8.0639
  88   2.0000      -0.294125        -8.0035
  89   2.0000      -0.290695        -7.9102
  90   2.0000      -0.286437        -7.7943
  91   2.0000      -0.272230        -7.4077
  92   2.0000      -0.263513        -7.1705
  93   2.0000      -0.261087        -7.1045
  94   2.0000      -0.257227        -6.9995
  95   2.0000      -0.243944        -6.6381
  96   2.0000      -0.221083        -6.0160
  97   2.0000      -0.204502        -5.5648
  98   2.0000      -0.200334        -5.4514
  99   2.0000      -0.188890        -5.1400
 100   2.0000      -0.180443        -4.9101
 101   0.0000      -0.041511        -1.1296
 102   0.0000      -0.032565        -0.8862
 103   0.0000      -0.014950        -0.4068
 104   0.0000       0.000306         0.0083
 105   0.0000       0.020585         0.5602

MULLIKEN ATOMIC CHARGES
-----------------------
   0 C :   -0.291714
   1 C :   -0.003839
   2 O :   -0.369158
   3 P :    0.623972
   4 S :   -0.335329
   5 O :   -0.379811
   6 C :   -0.007061
   7 C :   -0.316565
   8 S :   -0.100725
   9 C :   -0.343826
  10 S :   -0.102026
  11 P :    0.614366
  12 S :   -0.308255
  13 O :   -0.379714
  14 C :   -0.018316
  15 C :   -0.304992
  16 O :   -0.358704
  17 C :   -0.006379
  18 C :   -0.291012
  19 H :    0.134593
  20 H :    0.106106
  21 H :    0.110897
  22 H :    0.115597
  23 H :    0.097738
  24 H :    0.112003
  25 H :    0.109519
  26 H :    0.126860
  27 H :    0.110170
  28 H :    0.128854
  29 H :    0.182325
  30 H :    0.197335
  31 H :    0.100363
  32 H :    0.129775
  33 H :    0.111740
  34 H :    0.107625
  35 H :    0.141713
  36 H :    0.101996
  37 H :    0.110258
  38 H :    0.116317
  39 H :    0.108392
  40 H :    0.118908
Sum of atomic charges:    0.0000000

LOEWDIN ATOMIC CHARGES
----------------------
   0 C :   -0.353940
   1 C :   -0.116893
   2 O :   -0.242784
   3 P :    0.571568
   4 S :   -0.312389
   5 O :   -0.250393
   6 C :   -0.111650
   7 C :   -0.373023
   8 S :    0.082676
   9 C :   -0.476695
  10 S :    0.064640
  11 P :    0.569568
  12 S :   -0.290916
  13 O :   -0.239997
  14 C :   -0.116016
  15 C :   -0.364597
  16 O :   -0.241578
  17 C :   -0.113344
  18 C :   -0.361073
  19 H :    0.124409
  20 H :    0.128776
  21 H :    0.124500
  22 H :    0.109047
  23 H :    0.110163
  24 H :    0.109931
  25 H :    0.121708
  26 H :    0.120662
  27 H :    0.129346
  28 H :    0.129529
  29 H :    0.135382
  30 H :    0.124081
  31 H :    0.115996
  32 H :    0.108295
  33 H :    0.124792
  34 H :    0.129636
  35 H :    0.125854
  36 H :    0.107691
  37 H :    0.121591
  38 H :    0.118015
  39 H :    0.129087
  40 H :    0.128346

  Mayer bond orders larger than 0.100000
B(  0-C ,  1-C ) :   1.1641 B(  0-C , 19-H ) :   0.9426 B(  0-C , 20-H ) :   0.9410
B(  0-C , 21-H ) :   0.9493 B(  1-C ,  2-O ) :   0.8944 B(  1-C , 22-H ) :   0.9073
B(  1-C , 23-H ) :   0.9320 B(  2-O ,  3-P ) :   1.1303 B(  3-P ,  4-S ) :   1.6313
B(  3-P ,  5-O ) :   1.1078 B(  3-P ,  8-S ) :   0.9565 B(  4-S ,  8-S ) :   0.1191
B(  5-O ,  6-C ) :   0.9164 B(  6-C ,  7-C ) :   1.1650 B(  6-C , 24-H ) :   0.9308
B(  6-C , 25-H ) :   0.9345 B(  7-C , 26-H ) :   0.9321 B(  7-C , 27-H ) :   0.9333
B(  7-C , 28-H ) :   0.9397 B(  8-S ,  9-C ) :   1.0065 B(  9-C , 10-S ) :   0.9955
B(  9-C , 29-H ) :   0.9107 B(  9-C , 30-H ) :   0.8484 B( 10-S , 11-P ) :   0.9408
B( 10-S , 12-S ) :   0.1147 B( 11-P , 12-S ) :   1.6301 B( 11-P , 13-O ) :   1.1100
B( 11-P , 16-O ) :   1.1296 B( 12-S , 30-H ) :   0.1091 B( 13-O , 14-C ) :   0.8980
B( 14-C , 15-C ) :   1.1735 B( 14-C , 31-H ) :   0.9345 B( 14-C , 32-H ) :   0.9107
B( 15-C , 33-H ) :   0.9465 B( 15-C , 34-H ) :   0.9388 B( 15-C , 35-H ) :   0.9306
B( 16-O , 17-C ) :   0.8945 B( 17-C , 18-C ) :   1.1633 B( 17-C , 36-H ) :   0.9180
B( 17-C , 37-H ) :   0.9351 B( 18-C , 38-H ) :   0.9373 B( 18-C , 39-H ) :   0.9402
B( 18-C , 40-H ) :   0.9467

Dispersion correction           -0.066118096
FINAL SINGLE POINT ENERGY     -2929.512438070587

DIPOLE MOMENT
-------------

Method             : SCF
Type of density    : Electron Density
Multiplicity       :   1
Irrep              :   0
Energy             : -2929.6302876109671161 Eh
Relativity type    :
Basis              : AO
                                X                 Y                 Z
Electronic contribution:      1.758205976      -4.530945150      -1.580653143
Nuclear contribution   :     -1.985131371       3.903686499       2.315778368
                        -----------------------------------------
Total Dipole Moment    :     -0.226925395      -0.627258651       0.735125226
                        -----------------------------------------
Magnitude (a.u.)       :      0.992651826
Magnitude (Debye)      :      2.523120425

Rotational constants in cm-1:             0.011083             0.005354             0.005082
Rotational constants in MHz :           332.249895           160.520236           152.354252

                             ****ORCA TERMINATED NORMALLY****
TOTAL RUN TIME: 0 days 0 hours 0 minutes 21 seconds 118 msec
