                         Program Version 6.0.0  -   RELEASE  -
|  1> ! r2scan-3c def2/J RI DEFGRID2 scfconv6 printgap
|  2> %output
|  3>     printlevel normal
|  4> end
|  5> * xyz 0 1
|  6> C 5.4323716177 -1.9311182915 -1.0935414029
|  7> C 4.2855686259 -0.9770069526 -1.3580694893
|  8> O 3.4525784887 -0.9512227278 -0.1793481796
|  9> P 2.3572099382 0.1800687672 0.0227452253
| 10> S 2.9891979368 2.0221585851 -0.1264751627
| 11> O 1.7799113747 -0.1469934565 1.4488935908
| 12> C 1.3879432517 -1.4801275806 1.8603883584
| 13> C 2.4785964077 -2.1168645063 2.695884703
| 14> S 0.8623146266 -0.3840614661 -1.4001067701
| 15> C 0.0174172618 1.2135031493 -1.4318278394
| 16> S -0.7749623505 1.6254696242 0.1460622662
| 17> P -2.3232034669 0.1918163219 -0.0019240338
| 18> S -3.10675414 -0.0874965054 -1.7802807709
| 19> O -3.3489580558 0.5990303694 1.1400287854
| 20> C -4.4532809586 1.4896044339 0.9040126417
| 21> C -3.9954629739 2.9079273987 0.6317857527
| 22> O -1.6011983941 -1.0615461687 0.6459789972
| 23> C -2.0495528504 -2.4101513647 0.3858500936
| 24> C -3.4058563445 -2.680663492 1.0018555688
| 25> H 6.0162290589 -1.58697592 -0.2444974344
| 26> H 5.0490014308 -2.9247956232 -0.8808351758
| 27> H 6.0688278537 -1.9725803478 -1.9712049472
| 28> H 3.6733821087 -1.3087130056 -2.2010465392
| 29> H 4.6428508693 0.0393575895 -1.5523437
| 30> H 0.4717757095 -1.3312617278 2.4354921957
| 31> H 1.1713140608 -2.0745486187 0.9682983997
| 32> H 2.7079747807 -1.4851710095 3.5495535915
| 33> H 2.1388915148 -3.0862773233 3.0468404557
| 34> H 3.3794497971 -2.2436325043 2.1013724194
| 35> H -0.736393045 1.1563708275 -2.2173090645
| 36> H 0.7447355701 2.0010099241 -1.6288115484
| 37> H -5.0325871606 1.1051106178 0.0583364255
| 38> H -5.0423971309 1.4248622438 1.8197498781
| 39> H -3.3306112725 3.2494498626 1.4214779931
| 40> H -3.4612294329 2.9523210929 -0.3166372137
| 41> H -4.8599722975 3.5619552542 0.5795307137
| 42> H -2.0775126558 -2.5607155622 -0.698045501
| 43> H -1.2730120645 -3.03603025 0.8270616554
| 44> H -4.1637808013 -2.0719104384 0.5102396797
| 45> H -3.6574083578 -3.7285499427 0.8718415547
| 46> H -3.3936511899 -2.4381556676 2.0611815294
| 47> *
| 48>
| 49>                          ****END OF INPUT****

CARTESIAN COORDINATES (ANGSTROEM)
---------------------------------
  C      5.432372   -1.931118   -1.093541
  C      4.285569   -0.977007   -1.358069
  O      3.452578   -0.951223   -0.179348
  P      2.357210    0.180069    0.022745
  S      2.989198    2.022159   -0.126475
  O      1.779911   -0.146993    1.448894
  C      1.387943   -1.480128    1.860388
  C      2.478596   -2.116865    2.695885
  S      0.862315   -0.384061   -1.400107
  C      0.017417    1.213503   -1.431828
  S     -0.774962    1.625470    0.146062
  P     -2.323203    0.191816   -0.001924
  S     -3.106754   -0.087497   -1.780281
  O     -3.348958    0.599030    1.140029
  C     -4.453281    1.489604    0.904013
  C     -3.995463    2.907927    0.631786
  O     -1.601198   -1.061546    0.645979
  C     -2.049553   -2.410151    0.385850
  C     -3.405856   -2.680663    1.001856
  H      6.016229   -1.586976   -0.244497
  H      5.049001   -2.924796   -0.880835
  H      6.068828   -1.972580   -1.971205
  H      3.673382   -1.308713   -2.201047
  H      4.642851    0.039358   -1.552344
  H      0.471776   -1.331262    2.435492
  H      1.171314   -2.074549    0.968298
  H      2.707975   -1.485171    3.549554
  H      2.138892   -3.086277    3.046840
  H      3.379450   -2.243633    2.101372
  H     -0.736393    1.156371   -2.217309
  H      0.744736    2.001010   -1.628812
  H     -5.032587    1.105111    0.058336
  H     -5.042397    1.424862    1.819750
  H     -3.330611    3.249450    1.421478
  H     -3.461229    2.952321   -0.316637
  H     -4.859972    3.561955    0.579531
  H     -2.077513   -2.560716   -0.698046
  H     -1.273012   -3.036030    0.827062
  H     -4.163781   -2.071910    0.510240
  H     -3.657408   -3.728550    0.871842
  H     -3.393651   -2.438156    2.061182

 Total Charge           Charge          ....    0
 Multiplicity           Mult            ....    1
 Number of Electrons    NEL             ....  202
 Basis Dimension        Dim             ....  539

ORBITAL ENERGIES
----------------

  NO   OCC          E(Eh)            E(eV)
   0   2.0000     -88.573194     -2410.1991
   1   2.0000     -88.571568     -2410.1549
   2   2.0000     -88.523334     -2408.8424
   3   2.0000     -88.517813     -2408.6921
   4   2.0000     -76.914719     -2092.9559
   5   2.0000     -76.912214     -2092.8877
   6   2.0000     -18.995548      -516.8951
   7   2.0000     -18.995300      -516.8884
   8   2.0000     -18.991630      -516.7885
   9   2.0000     -18.990023      -516.7448
  10   2.0000     -10.101342      -274.8715
  11   2.0000     -10.101067      -274.8640
  12   2.0000     -10.100962      -274.8611
  13   2.0000     -10.100957      -274.8610
  14   2.0000     -10.100514      -274.8489
  15   2.0000     -10.036301      -273.1016
  16   2.0000     -10.032084      -272.9869
  17   2.0000     -10.031299      -272.9655
  18   2.0000     -10.028976      -272.9023
  19   2.0000      -7.867359      -214.0817
  20   2.0000      -7.865834      -214.0402
  21   2.0000      -7.818140      -212.7424
  22   2.0000      -7.812629      -212.5924
  23   2.0000      -6.593417      -179.4160
  24   2.0000      -6.590805      -179.3449
  25   2.0000      -5.814263      -158.2141
  26   2.0000      -5.812603      -158.1690
  27   2.0000      -5.811297      -158.1334
  28   2.0000      -5.809697      -158.0899
  29   2.0000      -5.804388      -157.9454
  30   2.0000      -5.803081      -157.9099
  31   2.0000      -5.765691      -156.8924
  32   2.0000      -5.760330      -156.7466
  33   2.0000      -5.758434      -156.6949
  34   2.0000      -5.758219      -156.6891
  35   2.0000      -5.752852      -156.5431
  36   2.0000      -5.752617      -156.5367
  37   2.0000      -4.738819      -128.9498
  38   2.0000      -4.738270      -128.9349
  39   2.0000      -4.737279      -128.9079
  40   2.0000      -4.736656      -128.8910
  41   2.0000      -4.735788      -128.8674
  42   2.0000      -4.734154      -128.8229
  43   2.0000      -1.052767       -28.6472
  44   2.0000      -1.052093       -28.6289
  45   2.0000      -1.013580       -27.5809
  46   2.0000      -1.011344       -27.5201
  47   2.0000      -0.800147       -21.7731
  48   2.0000      -0.759950       -20.6793
  49   2.0000      -0.751031       -20.4366
  50   2.0000      -0.738092       -20.0845
  51   2.0000      -0.733587       -19.9619
  52   2.0000      -0.710469       -19.3328
  53   2.0000      -0.684753       -18.6331
  54   2.0000      -0.668259       -18.1843
  55   2.0000      -0.634130       -17.2556
  56   2.0000      -0.620284       -16.8788
  57   2.0000      -0.607997       -16.5444
  58   2.0000      -0.604508       -16.4495
  59   2.0000      -0.593182       -16.1413
  60   2.0000      -0.534947       -14.5567
  61   2.0000      -0.519320       -14.1314
  62   2.0000      -0.501667       -13.6510
  63   2.0000      -0.494564       -13.4578
  64   2.0000      -0.476315       -12.9612
  65   2.0000      -0.464123       -12.6294
  66   2.0000      -0.460889       -12.5414
  67   2.0000      -0.458110       -12.4658
  68   2.0000      -0.448465       -12.2034
  69   2.0000      -0.432649       -11.7730
  70   2.0000      -0.423176       -11.5152
  71   2.0000      -0.415251       -11.2996
  72   2.0000      -0.407911       -11.0998
  73   2.0000      -0.405421       -11.0321
  74   2.0000      -0.397639       -10.8203
  75   2.0000      -0.389545       -10.6001
  76   2.0000      -0.382664       -10.4128
  77   2.0000      -0.375214       -10.2101
  78   2.0000      -0.372785       -10.1440
  79   2.0000      -0.368769       -10.0347
  80   2.0000      -0.365985        -9.9590
  81   2.0000      -0.362204        -9.8561
  82   2.0000      -0.359991        -9.7959
  83   2.0000      -0.356817        -9.7095
  84   2.0000      -0.350308        -9.5324
  85   2.0000      -0.335911        -9.1406
  86   2.0000      -0.325106        -8.8466
  87   2.0000      -0.318287        -8.6610
  88   2.0000      -0.312161        -8.4943
  89   2.0000      -0.309014        -8.4087
  90   2.0000      -0.301871        -8.2143
  91   2.0000      -0.293816        -7.9951
  92   2.0000      -0.285804        -7.7771
  93   2.0000      -0.280602        -7.6356
  94   2.0000      -0.271811        -7.3963
  95   2.0000      -0.245397        -6.6776
  96   2.0000      -0.230686        -6.2773
  97   2.0000      -0.227332        -6.1860
  98   2.0000      -0.218407        -5.9432
  99   2.0000      -0.214272        -5.8306
 100   2.0000      -0.211326        -5.7505
 101   0.0000      -0.044905        -1.2219
 102   0.0000      -0.023306        -0.6342
 103   0.0000      -0.000665        -0.0181
 104   0.0000       0.003273         0.0891
 105   0.0000       0.015068         0.4100

MULLIKEN ATOMIC CHARGES
-----------------------
   0 C :   -0.442566
   1 C :   -0.153315
   2 O :   -0.283700
   3 P :    0.668481
   4 S :   -0.447494
   5 O :   -0.255415
   6 C :   -0.108768
   7 C :   -0.484501
   8 S :   -0.184976
   9 C :   -0.241352
  10 S :   -0.099260
  11 P :    0.682574
  12 S :   -0.491489
  13 O :   -0.307345
  14 C :   -0.148759
  15 C :   -0.453992
  16 O :   -0.260622
  17 C :   -0.157411
  18 C :   -0.439229
  19 H :    0.159569
  20 H :    0.150776
  21 H :    0.148224
  22 H :    0.153695
  23 H :    0.171170
  24 H :    0.169890
  25 H :    0.156137
  26 H :    0.160569
  27 H :    0.144225
  28 H :    0.166630
  29 H :    0.211756
  30 H :    0.218013
  31 H :    0.170290
  32 H :    0.148611
  33 H :    0.158265
  34 H :    0.177987
  35 H :    0.148178
  36 H :    0.177075
  37 H :    0.145074
  38 H :    0.169505
  39 H :    0.147533
  40 H :    0.155968
Sum of atomic charges:   -0.0000000

LOEWDIN ATOMIC CHARGES
----------------------
   0 C :   -0.386477
   1 C :    0.019646
   2 O :   -0.677672
   3 P :    0.376423
   4 S :   -0.102462
   5 O :   -0.644221
   6 C :    0.020270
   7 C :   -0.392181
   8 S :    0.135323
   9 C :   -0.424677
  10 S :    0.186014
  11 P :    0.379023
  12 S :   -0.136643
  13 O :   -0.660730
  14 C :    0.020258
  15 C :   -0.406235
  16 O :   -0.680967
  17 C :    0.015030
  18 C :   -0.399071
  19 H :    0.161859
  20 H :    0.158313
  21 H :    0.160974
  22 H :    0.172935
  23 H :    0.181577
  24 H :    0.186702
  25 H :    0.175531
  26 H :    0.162959
  27 H :    0.157931
  28 H :    0.166099
  29 H :    0.190919
  30 H :    0.192291
  31 H :    0.179216
  32 H :    0.179718
  33 H :    0.161372
  34 H :    0.166159
  35 H :    0.159640
  36 H :    0.182093
  37 H :    0.176937
  38 H :    0.165756
  39 H :    0.159527
  40 H :    0.160840

  Mayer bond orders larger than 0.100000
B(  0-C ,  1-C ) :   0.9539 B(  0-C , 19-H ) :   0.9714 B(  0-C , 20-H ) :   0.9720
B(  0-C , 21-H ) :   0.9632 B(  1-C ,  2-O ) :   0.7885 B(  1-C , 22-H ) :   0.9415
B(  1-C , 23-H ) :   0.9502 B(  2-O ,  3-P ) :   1.0477 B(  3-P ,  4-S ) :   1.8342
B(  3-P ,  5-O ) :   1.1618 B(  3-P ,  8-S ) :   0.9805 B(  5-O ,  6-C ) :   0.7306
B(  6-C ,  7-C ) :   0.9308 B(  6-C , 24-H ) :   0.9545 B(  6-C , 25-H ) :   0.9701
B(  7-C , 26-H ) :   0.9737 B(  7-C , 27-H ) :   0.9661 B(  7-C , 28-H ) :   0.9692
B(  8-S ,  9-C ) :   0.9119 B(  9-C , 10-S ) :   0.9159 B(  9-C , 29-H ) :   0.9066
B(  9-C , 30-H ) :   0.9059 B( 10-S , 11-P ) :   1.1061 B( 11-P , 12-S ) :   1.7366
B( 11-P , 13-O ) :   1.0706 B( 11-P , 16-O ) :   1.1302 B( 13-O , 14-C ) :   0.8107
B( 14-C , 15-C ) :   0.9244 B( 14-C , 31-H ) :   0.9660 B( 14-C , 32-H ) :   0.9580
B( 15-C , 33-H ) :   0.9683 B( 15-C , 34-H ) :   0.9616 B( 15-C , 35-H ) :   0.9584
B( 16-O , 17-C ) :   0.7830 B( 17-C , 18-C ) :   0.9218 B( 17-C , 36-H ) :   0.9629
B( 17-C , 37-H ) :   0.9613 B( 18-C , 38-H ) :   0.9595 B( 18-C , 39-H ) :   0.9621
B( 18-C , 40-H ) :   0.9720

Dispersion correction           -0.021305315
FINAL SINGLE POINT ENERGY     -2932.465427534806

DIPOLE MOMENT
-------------

Method             : SCF
Type of density    : Electron Density
Multiplicity       :   1
Irrep              :   0
Energy             : -2932.4904881887860029 Eh
Relativity type    :
Basis              : AO
                                X                 Y                 Z
Electronic contribution:      0.620048724      14.291557250      -7.610784616
Nuclear contribution   :     -0.929841980     -15.794774884       8.130363276
                        -----------------------------------------
Total Dipole Moment    :     -0.309793256      -1.503217634       0.519578660
                        -----------------------------------------
Magnitude (a.u.)       :      1.620369433
Magnitude (Debye)      :      4.118651785

Rotational constants in cm-1:             0.013084             0.004741             0.004324
Rotational constants in MHz :           392.257482           142.118162           129.635024

                             ****ORCA TERMINATED NORMALLY****
TOTAL RUN TIME: 0 days 0 hours 1 minutes 22 seconds 618 msec
