                         Program Version 6.0.0  -   RELEASE  -
|  1> ! r2scan-3c def2/J RI DEFGRID2 scfconv6 printgap
|  2> %output
|  3>     printlevel normal
|  4> end
|  5> %cpcm
|  6>     smd true
|  7>     smdsolvent "water"
|  8> end
|  9> * xyz 0 1
| 10> C 5.4323716177 -1.9311182915 -1.0935414029
| 11> C 4.2855686259 -0.9770069526 -1.3580694893
| 12> O 3.4525784887 -0.9512227278 -0.1793481796
| 13> P 2.3572099382 0.1800687672 0.0227452253
| 14> S 2.9891979368 2.0221585851 -0.1264751627
| 15> O 1.7799113747 -0.1469934565 1.4488935908
| 16> C 1.3879432517 -1.4801275806 1.8603883584
| 17> C 2.4785964077 -2.1168645063 2.695884703
| 18> S 0.8623146266 -0.3840614661 -1.4001067701
| 19> C 0.0174172618 1.2135031493 -1.4318278394
| 20> S -0.7749623505 1.6254696242 0.1460622662
| 21> P -2.3232034669 0.1918163219 -0.0019240338
| 22> S -3.10675414 -0.0874965054 -1.7802807709
| 23> O -3.3489580558 0.5990303694 1.1400287854
| 24> C -4.4532809586 1.4896044339 0.9040126417
| 25> C -3.9954629739 2.9079273987 0.6317857527
| 26> O -1.6011983941 -1.0615461687 0.6459789972
| 27> C -2.0495528504 -2.4101513647 0.3858500936
| 28> C -3.4058563445 -2.680663492 1.0018555688
| 29> H 6.0162290589 -1.58697592 -0.2444974344
| 30> H 5.0490014308 -2.9247956232 -0.8808351758
| 31> H 6.0688278537 -1.9725803478 -1.9712049472
| 32> H 3.6733821087 -1.3087130056 -2.2010465392
| 33> H 4.6428508693 0.0393575895 -1.5523437
| 34> H 0.4717757095 -1.3312617278 2.4354921957
| 35> H 1.1713140608 -2.0745486187 0.9682983997
| 36> H 2.7079747807 -1.4851710095 3.5495535915
| 37> H 2.1388915148 -3.0862773233 3.0468404557
| 38> H 3.3794497971 -2.2436325043 2.1013724194
| 39> H -0.736393045 1.1563708275 -2.2173090645
| 40> H 0.7447355701 2.0010099241 -1.6288115484
| 41> H -5.0325871606 1.1051106178 0.0583364255
| 42> H -5.0423971309 1.4248622438 1.8197498781
| 43> H -3.3306112725 3.2494498626 1.4214779931
| 44> H -3.4612294329 2.9523210929 -0.3166372137
| 45> H -4.8599722975 3.5619552542 0.5795307137
| 46> H -2.0775126558 -2.5607155622 -0.698045501
| 47> H -1.2730120645 -3.03603025 0.8270616554
| 48> H -4.1637808013 -2.0719104384 0.5102396797
| 49> H -3.6574083578 -3.7285499427 0.8718415547
| 50> H -3.3936511899 -2.4381556676 2.0611815294
| 51> *
| 52>
| 53>                          ****END OF INPUT****

CARTESIAN COORDINATES (ANGSTROEM)
---------------------------------
  C      5.432372   -1.931118   -1.093541
  C      4.285569   -0.977007   -1.358069
  O      3.452578   -0.951223   -0.179348
  P      2.357210    0.180069    0.022745
  S      2.989198    2.022159   -0.126475
  O      1.779911   -0.146993    1.448894
  C      1.387943   -1.480128    1.860388
  C      2.478596   -2.116865    2.695885
  S      0.862315   -0.384061   -1.400107
  C      0.017417    1.213503   -1.431828
  S     -0.774962    1.625470    0.146062
  P     -2.323203    0.191816   -0.001924
  S     -3.106754   -0.087497   -1.780281
  O     -3.348958    0.599030    1.140029
  C     -4.453281    1.489604    0.904013
  C     -3.995463    2.907927    0.631786
  O     -1.601198   -1.061546    0.645979
  C     -2.049553   -2.410151    0.385850
  C     -3.405856   -2.680663    1.001856
  H      6.016229   -1.586976   -0.244497
  H      5.049001   -2.924796   -0.880835
  H      6.068828   -1.972580   -1.971205
  H      3.673382   -1.308713   -2.201047
  H      4.642851    0.039358   -1.552344
  H      0.471776   -1.331262    2.435492
  H      1.171314   -2.074549    0.968298
  H      2.707975   -1.485171    3.549554
  H      2.138892   -3.086277    3.046840
  H      3.379450   -2.243633    2.101372
  H     -0.736393    1.156371   -2.217309
  H      0.744736    2.001010   -1.628812
  H     -5.032587    1.105111    0.058336
  H     -5.042397    1.424862    1.819750
  H     -3.330611    3.249450    1.421478
  H     -3.461229    2.952321   -0.316637
  H     -4.859972    3.561955    0.579531
  H     -2.077513   -2.560716   -0.698046
  H     -1.273012   -3.036030    0.827062
  H     -4.163781   -2.071910    0.510240
  H     -3.657408   -3.728550    0.871842
  H     -3.393651   -2.438156    2.061182

 Total Charge           Charge          ....    0
 Multiplicity           Mult            ....    1
 Number of Electrons    NEL             ....  202
 Basis Dimension        Dim             ....  539

ORBITAL ENERGIES
----------------

  NO   OCC          E(Eh)            E(eV)
   0   2.0000     -88.578832     -2410.3526
   1   2.0000     -88.576687     -2410.2942
   2   2.0000     -88.530393     -2409.0345
   3   2.0000     -88.529101     -2408.9993
   4   2.0000     -76.920211     -2093.1054
   5   2.0000     -76.918802     -2093.0670
   6   2.0000     -18.997038      -516.9357
   7   2.0000     -18.996655      -516.9253
   8   2.0000     -18.995973      -516.9067
   9   2.0000     -18.991956      -516.7974
  10   2.0000     -10.103186      -274.9217
  11   2.0000     -10.092318      -274.6259
  12   2.0000     -10.091452      -274.6024
  13   2.0000     -10.090221      -274.5689
  14   2.0000     -10.088840      -274.5313
  15   2.0000     -10.020128      -272.6616
  16   2.0000     -10.018813      -272.6258
  17   2.0000     -10.018707      -272.6229
  18   2.0000     -10.018631      -272.6208
  19   2.0000      -7.873122      -214.2385
  20   2.0000      -7.870928      -214.1788
  21   2.0000      -7.825578      -212.9448
  22   2.0000      -7.824174      -212.9066
  23   2.0000      -6.598831      -179.5633
  24   2.0000      -6.597527      -179.5278
  25   2.0000      -5.819975      -158.3696
  26   2.0000      -5.817703      -158.3078
  27   2.0000      -5.817039      -158.2897
  28   2.0000      -5.814814      -158.2291
  29   2.0000      -5.810221      -158.1042
  30   2.0000      -5.808151      -158.0478
  31   2.0000      -5.773153      -157.0955
  32   2.0000      -5.771687      -157.0556
  33   2.0000      -5.765772      -156.8946
  34   2.0000      -5.765651      -156.8913
  35   2.0000      -5.764457      -156.8589
  36   2.0000      -5.764253      -156.8533
  37   2.0000      -4.744606      -129.1073
  38   2.0000      -4.743781      -129.0849
  39   2.0000      -4.742853      -129.0596
  40   2.0000      -4.742380      -129.0467
  41   2.0000      -4.742332      -129.0454
  42   2.0000      -4.741494      -129.0226
  43   2.0000      -1.056058       -28.7368
  44   2.0000      -1.052685       -28.6450
  45   2.0000      -1.014336       -27.6015
  46   2.0000      -1.013086       -27.5675
  47   2.0000      -0.804077       -21.8801
  48   2.0000      -0.756492       -20.5852
  49   2.0000      -0.744483       -20.2584
  50   2.0000      -0.727949       -19.8085
  51   2.0000      -0.723664       -19.6919
  52   2.0000      -0.709914       -19.3178
  53   2.0000      -0.688850       -18.7446
  54   2.0000      -0.675156       -18.3719
  55   2.0000      -0.631237       -17.1768
  56   2.0000      -0.616241       -16.7688
  57   2.0000      -0.599387       -16.3101
  58   2.0000      -0.597847       -16.2682
  59   2.0000      -0.592370       -16.1192
  60   2.0000      -0.532127       -14.4799
  61   2.0000      -0.514353       -13.9963
  62   2.0000      -0.498629       -13.5684
  63   2.0000      -0.489987       -13.3332
  64   2.0000      -0.475923       -12.9505
  65   2.0000      -0.459947       -12.5158
  66   2.0000      -0.454328       -12.3629
  67   2.0000      -0.453566       -12.3422
  68   2.0000      -0.442762       -12.0482
  69   2.0000      -0.429627       -11.6907
  70   2.0000      -0.421314       -11.4645
  71   2.0000      -0.408616       -11.1190
  72   2.0000      -0.404541       -11.0081
  73   2.0000      -0.403202       -10.9717
  74   2.0000      -0.391501       -10.6533
  75   2.0000      -0.389847       -10.6083
  76   2.0000      -0.381620       -10.3844
  77   2.0000      -0.368076       -10.0159
  78   2.0000      -0.364973        -9.9314
  79   2.0000      -0.362116        -9.8537
  80   2.0000      -0.356565        -9.7026
  81   2.0000      -0.352485        -9.5916
  82   2.0000      -0.351152        -9.5553
  83   2.0000      -0.347872        -9.4661
  84   2.0000      -0.346562        -9.4304
  85   2.0000      -0.331297        -9.0151
  86   2.0000      -0.322084        -8.7644
  87   2.0000      -0.315213        -8.5774
  88   2.0000      -0.306203        -8.3322
  89   2.0000      -0.304426        -8.2839
  90   2.0000      -0.299099        -8.1389
  91   2.0000      -0.291699        -7.9375
  92   2.0000      -0.283803        -7.7227
  93   2.0000      -0.280118        -7.6224
  94   2.0000      -0.274477        -7.4689
  95   2.0000      -0.251100        -6.8328
  96   2.0000      -0.238861        -6.4997
  97   2.0000      -0.236210        -6.4276
  98   2.0000      -0.227595        -6.1932
  99   2.0000      -0.223847        -6.0912
 100   2.0000      -0.220891        -6.0107
 101   0.0000      -0.051663        -1.4058
 102   0.0000      -0.030948        -0.8421
 103   0.0000      -0.005518        -0.1502
 104   0.0000      -0.002490        -0.0678
 105   0.0000       0.013694         0.3726

MULLIKEN ATOMIC CHARGES
-----------------------
   0 C :   -0.481877
   1 C :   -0.139672
   2 O :   -0.299974
   3 P :    0.677199
   4 S :   -0.502897
   5 O :   -0.290152
   6 C :   -0.093320
   7 C :   -0.528841
   8 S :   -0.183685
   9 C :   -0.248514
  10 S :   -0.128717
  11 P :    0.723037
  12 S :   -0.533163
  13 O :   -0.331721
  14 C :   -0.149555
  15 C :   -0.489934
  16 O :   -0.285974
  17 C :   -0.152542
  18 C :   -0.482702
  19 H :    0.167043
  20 H :    0.166410
  21 H :    0.169914
  22 H :    0.170192
  23 H :    0.172620
  24 H :    0.182479
  25 H :    0.177384
  26 H :    0.169405
  27 H :    0.172000
  28 H :    0.170167
  29 H :    0.231590
  30 H :    0.234447
  31 H :    0.177690
  32 H :    0.176016
  33 H :    0.170004
  34 H :    0.173092
  35 H :    0.173240
  36 H :    0.177839
  37 H :    0.180060
  38 H :    0.168666
  39 H :    0.172358
  40 H :    0.170386
Sum of atomic charges:   -0.0000000

LOEWDIN ATOMIC CHARGES
----------------------
   0 C :   -0.388955
   1 C :    0.025152
   2 O :   -0.681833
   3 P :    0.377774
   4 S :   -0.146271
   5 O :   -0.668768
   6 C :    0.027465
   7 C :   -0.393863
   8 S :    0.140295
   9 C :   -0.420133
  10 S :    0.167766
  11 P :    0.384410
  12 S :   -0.161068
  13 O :   -0.671425
  14 C :    0.026073
  15 C :   -0.409816
  16 O :   -0.690168
  17 C :    0.021211
  18 C :   -0.402586
  19 H :    0.163445
  20 H :    0.163419
  21 H :    0.169396
  22 H :    0.179970
  23 H :    0.181892
  24 H :    0.192519
  25 H :    0.184341
  26 H :    0.164476
  27 H :    0.169388
  28 H :    0.165783
  29 H :    0.196841
  30 H :    0.196852
  31 H :    0.181704
  32 H :    0.191321
  33 H :    0.163736
  34 H :    0.161713
  35 H :    0.168720
  36 H :    0.182279
  37 H :    0.191041
  38 H :    0.162779
  39 H :    0.168818
  40 H :    0.164306

  Mayer bond orders larger than 0.100000
B(  0-C ,  1-C ) :   0.9540 B(  0-C , 19-H ) :   0.9690 B(  0-C , 20-H ) :   0.9681
B(  0-C , 21-H ) :   0.9576 B(  1-C ,  2-O ) :   0.7792 B(  1-C , 22-H ) :   0.9323
B(  1-C , 23-H ) :   0.9474 B(  2-O ,  3-P ) :   1.0625 B(  3-P ,  4-S ) :   1.8098
B(  3-P ,  5-O ) :   1.1675 B(  3-P ,  8-S ) :   0.9952 B(  5-O ,  6-C ) :   0.7188
B(  6-C ,  7-C ) :   0.9275 B(  6-C , 24-H ) :   0.9452 B(  6-C , 25-H ) :   0.9561
B(  7-C , 26-H ) :   0.9724 B(  7-C , 27-H ) :   0.9587 B(  7-C , 28-H ) :   0.9683
B(  8-S ,  9-C ) :   0.9016 B(  9-C , 10-S ) :   0.9034 B(  9-C , 29-H ) :   0.9031
B(  9-C , 30-H ) :   0.9016 B( 10-S , 11-P ) :   1.1070 B( 11-P , 12-S ) :   1.7010
B( 11-P , 13-O ) :   1.0797 B( 11-P , 16-O ) :   1.1416 B( 13-O , 14-C ) :   0.7991
B( 14-C , 15-C ) :   0.9099 B( 14-C , 31-H ) :   0.9649 B( 14-C , 32-H ) :   0.9483
B( 15-C , 33-H ) :   0.9659 B( 15-C , 34-H ) :   0.9633 B( 15-C , 35-H ) :   0.9530
B( 16-O , 17-C ) :   0.7703 B( 17-C , 18-C ) :   0.9085 B( 17-C , 36-H ) :   0.9597
B( 17-C , 37-H ) :   0.9507 B( 18-C , 38-H ) :   0.9592 B( 18-C , 39-H ) :   0.9560
B( 18-C , 40-H ) :   0.9714

Dispersion correction           -0.021305315
FINAL SINGLE POINT ENERGY     -2932.475327812440

DIPOLE MOMENT
-------------

Method             : SCF
Type of density    : Electron Density
Multiplicity       :   1
Irrep              :   0
Energy             : -2932.5003884664197358 Eh
Relativity type    :
Basis              : AO
                                X                 Y                 Z
Electronic contribution:      0.405932665      13.596081369      -7.633453756
Nuclear contribution   :     -0.929841980     -15.794774884       8.130363276
                        -----------------------------------------
Total Dipole Moment    :     -0.523909314      -2.198693515       0.496909520
                        -----------------------------------------
Magnitude (a.u.)       :      2.314228428
Magnitude (Debye)      :      5.882301189

Rotational constants in cm-1:             0.013084             0.004741             0.004324
Rotational constants in MHz :           392.257482           142.118162           129.635024

                             ****ORCA TERMINATED NORMALLY****
TOTAL RUN TIME: 0 days 0 hours 1 minutes 55 seconds 879 msec
