                         Program Version 6.0.1  -  RELEASE   -
|  1> ! r2scan-3c def2/J RI DEFGRID2 scfconv6 printgap
|  2> %output
|  3>     printlevel normal
|  4> end
|  5> * xyz 0 1
|  6> C 1.5135513926 -4.3056446479 -1.3430467997
|  7> C 2.7230565224 -3.5781587657 -0.7776979969
|  8> O 2.342215414 -2.3016091141 -0.2272680438
|  9> C 2.3692851321 -1.2476517265 -1.0157178343
| 10> O 2.7050009983 -1.2603248424 -2.1790027838
| 11> C 1.9173611271 0.0058809616 -0.2884599081
| 12> C 0.7800168724 0.6493945826 -1.0769947349
| 13> H 1.1031695221 0.7961824436 -2.1135515272
| 14> C 0.3384126875 1.9862980881 -0.5105721341
| 15> O -0.829876543 2.2528899632 -0.3101655667
| 16> O 1.3474623349 2.7870218165 -0.3132729215
| 17> C 1.1021464884 4.0803174712 0.2829461252
| 18> C 1.3056834405 4.0079060858 1.7869726023
| 19> S -0.6757605091 -0.4383471044 -1.1946444796
| 20> P -1.635187624 -0.0577997107 0.6738047529
| 21> S -0.5800951446 0.5357332434 2.2121057426
| 22> O -2.9632329875 0.7663124677 0.456737841
| 23> C -3.909670679 0.4628094869 -0.5850265123
| 24> O -2.280180759 -1.511644132 0.9200317667
| 25> C -1.4595695445 -2.6328163404 1.2542998225
| 26> H 1.0516029916 -3.7082547206 -2.1263411942
| 27> H 1.8314429778 -5.2538525409 -1.7637200787
| 28> H 0.7838282487 -4.4907265605 -0.5595471997
| 29> H 3.4709002372 -3.4088486082 -1.5574185099
| 30> H 3.1601856822 -4.121961197 0.0597750155
| 31> H 2.7506776017 0.7098357353 -0.2490050407
| 32> H 1.6063898873 -0.2467043378 0.726221339
| 33> H 1.8289064149 4.7421091213 -0.1886082349
| 34> H 0.0828335436 4.3904136082 0.0390516347
| 35> H 0.6137795263 3.2913928709 2.2267465524
| 36> H 2.3200270806 3.6949056455 2.0159383132
| 37> H 1.1242107472 4.9853580437 2.22097739
| 38> H -3.4350771215 0.5749114415 -1.5597817897
| 39> H -4.7063183452 1.1917093887 -0.4614186798
| 40> H -4.285730357 -0.5515041948 -0.4630203627
| 41> H -0.83717059 -2.9033898266 0.4010256017
| 42> H -2.1472335043 -3.4377463652 1.4997992906
| 43> H -0.8279291523 -2.3928896148 2.1113788047
| 44> *
| 45>
| 46>                          ****END OF INPUT****

CARTESIAN COORDINATES (ANGSTROEM)
---------------------------------
  C      1.513551   -4.305645   -1.343047
  C      2.723057   -3.578159   -0.777698
  O      2.342215   -2.301609   -0.227268
  C      2.369285   -1.247652   -1.015718
  O      2.705001   -1.260325   -2.179003
  C      1.917361    0.005881   -0.288460
  C      0.780017    0.649395   -1.076995
  H      1.103170    0.796182   -2.113552
  C      0.338413    1.986298   -0.510572
  O     -0.829877    2.252890   -0.310166
  O      1.347462    2.787022   -0.313273
  C      1.102146    4.080317    0.282946
  C      1.305683    4.007906    1.786973
  S     -0.675761   -0.438347   -1.194644
  P     -1.635188   -0.057800    0.673805
  S     -0.580095    0.535733    2.212106
  O     -2.963233    0.766312    0.456738
  C     -3.909671    0.462809   -0.585027
  O     -2.280181   -1.511644    0.920032
  C     -1.459570   -2.632816    1.254300
  H      1.051603   -3.708255   -2.126341
  H      1.831443   -5.253853   -1.763720
  H      0.783828   -4.490727   -0.559547
  H      3.470900   -3.408849   -1.557419
  H      3.160186   -4.121961    0.059775
  H      2.750678    0.709836   -0.249005
  H      1.606390   -0.246704    0.726221
  H      1.828906    4.742109   -0.188608
  H      0.082834    4.390414    0.039052
  H      0.613780    3.291393    2.226747
  H      2.320027    3.694906    2.015938
  H      1.124211    4.985358    2.220977
  H     -3.435077    0.574911   -1.559782
  H     -4.706318    1.191709   -0.461419
  H     -4.285730   -0.551504   -0.463020
  H     -0.837171   -2.903390    0.401026
  H     -2.147234   -3.437746    1.499799
  H     -0.827929   -2.392890    2.111379

 Total Charge           Charge          ....    0
 Multiplicity           Mult            ....    1
 Number of Electrons    NEL             ....  174
 Basis Dimension        Dim             ....  510

ORBITAL ENERGIES
----------------

  NO   OCC          E(Eh)            E(eV)
   0   2.0000     -88.573734     -2410.2138
   1   2.0000     -88.511975     -2408.5333
   2   2.0000     -76.910807     -2092.8495
   3   2.0000     -19.015008      -517.4247
   4   2.0000     -19.005899      -517.1768
   5   2.0000     -18.984669      -516.5991
   6   2.0000     -18.982476      -516.5394
   7   2.0000     -18.942234      -515.4444
   8   2.0000     -18.936262      -515.2819
   9   2.0000     -10.171319      -276.7757
  10   2.0000     -10.161226      -276.5010
  11   2.0000     -10.100844      -274.8579
  12   2.0000     -10.099280      -274.8154
  13   2.0000     -10.096861      -274.7496
  14   2.0000     -10.090330      -274.5718
  15   2.0000     -10.084696      -274.4185
  16   2.0000     -10.053723      -273.5757
  17   2.0000     -10.034482      -273.0521
  18   2.0000     -10.028327      -272.8846
  19   2.0000      -7.868025      -214.0998
  20   2.0000      -7.807139      -212.4431
  21   2.0000      -6.588454      -179.2809
  22   2.0000      -5.815034      -158.2351
  23   2.0000      -5.811810      -158.1474
  24   2.0000      -5.805074      -157.9641
  25   2.0000      -5.755072      -156.6035
  26   2.0000      -5.747523      -156.3981
  27   2.0000      -5.746678      -156.3751
  28   2.0000      -4.734191      -128.8239
  29   2.0000      -4.733626      -128.8085
  30   2.0000      -4.731929      -128.7623
  31   2.0000      -1.093259       -29.7491
  32   2.0000      -1.081854       -29.4387
  33   2.0000      -1.042710       -28.3736
  34   2.0000      -1.000550       -27.2263
  35   2.0000      -0.994663       -27.0662
  36   2.0000      -0.986307       -26.8388
  37   2.0000      -0.811563       -22.0838
  38   2.0000      -0.755739       -20.5647
  39   2.0000      -0.749401       -20.3922
  40   2.0000      -0.726708       -19.7747
  41   2.0000      -0.695264       -18.9191
  42   2.0000      -0.668643       -18.1947
  43   2.0000      -0.662145       -18.0179
  44   2.0000      -0.651616       -17.7314
  45   2.0000      -0.630335       -17.1523
  46   2.0000      -0.599040       -16.3007
  47   2.0000      -0.540195       -14.6994
  48   2.0000      -0.533052       -14.5051
  49   2.0000      -0.524572       -14.2743
  50   2.0000      -0.508843       -13.8463
  51   2.0000      -0.487154       -13.2561
  52   2.0000      -0.479961       -13.0604
  53   2.0000      -0.470941       -12.8149
  54   2.0000      -0.454384       -12.3644
  55   2.0000      -0.451090       -12.2748
  56   2.0000      -0.450773       -12.2662
  57   2.0000      -0.442246       -12.0341
  58   2.0000      -0.438501       -11.9322
  59   2.0000      -0.426608       -11.6086
  60   2.0000      -0.418821       -11.3967
  61   2.0000      -0.415790       -11.3142
  62   2.0000      -0.410947       -11.1824
  63   2.0000      -0.406602       -11.0642
  64   2.0000      -0.402061       -10.9406
  65   2.0000      -0.381214       -10.3734
  66   2.0000      -0.379298       -10.3212
  67   2.0000      -0.367607       -10.0031
  68   2.0000      -0.365541        -9.9469
  69   2.0000      -0.352029        -9.5792
  70   2.0000      -0.349043        -9.4979
  71   2.0000      -0.345903        -9.4125
  72   2.0000      -0.343451        -9.3458
  73   2.0000      -0.326041        -8.8720
  74   2.0000      -0.317622        -8.6429
  75   2.0000      -0.314814        -8.5665
  76   2.0000      -0.312484        -8.5031
  77   2.0000      -0.306001        -8.3267
  78   2.0000      -0.286985        -7.8093
  79   2.0000      -0.281128        -7.6499
  80   2.0000      -0.279220        -7.5980
  81   2.0000      -0.270404        -7.3581
  82   2.0000      -0.256914        -6.9910
  83   2.0000      -0.245673        -6.6851
  84   2.0000      -0.235958        -6.4207
  85   2.0000      -0.211409        -5.7527
  86   2.0000      -0.206832        -5.6282
  87   0.0000      -0.044661        -1.2153
  88   0.0000      -0.034239        -0.9317
  89   0.0000      -0.013129        -0.3573
  90   0.0000       0.000464         0.0126
  91   0.0000       0.021748         0.5918

MULLIKEN ATOMIC CHARGES
-----------------------
   0 C :   -0.471153
   1 C :   -0.137125
   2 O :   -0.158224
   3 C :    0.380899
   4 O :   -0.427620
   5 C :   -0.416819
   6 C :   -0.009996
   7 H :    0.213171
   8 C :    0.326366
   9 O :   -0.394096
  10 O :   -0.162904
  11 C :   -0.140900
  12 C :   -0.462592
  13 S :   -0.181618
  14 P :    0.805320
  15 S :   -0.468308
  16 O :   -0.302980
  17 C :   -0.299757
  18 O :   -0.367130
  19 C :   -0.306962
  20 H :    0.175352
  21 H :    0.149378
  22 H :    0.146930
  23 H :    0.170872
  24 H :    0.151126
  25 H :    0.192504
  26 H :    0.211116
  27 H :    0.149641
  28 H :    0.176312
  29 H :    0.187539
  30 H :    0.150661
  31 H :    0.147402
  32 H :    0.168852
  33 H :    0.155506
  34 H :    0.166796
  35 H :    0.155558
  36 H :    0.149987
  37 H :    0.176897
Sum of atomic charges:    0.0000000

LOEWDIN ATOMIC CHARGES
----------------------
   0 C :   -0.390762
   1 C :    0.029994
   2 O :   -0.580282
   3 C :    0.346684
   4 O :   -0.438070
   5 C :   -0.208420
   6 C :   -0.191214
   7 H :    0.214120
   8 C :    0.350933
   9 O :   -0.458915
  10 O :   -0.572507
  11 C :    0.037075
  12 C :   -0.388766
  13 S :    0.212320
  14 P :    0.417711
  15 S :   -0.086070
  16 O :   -0.637924
  17 C :   -0.049900
  18 O :   -0.693473
  19 C :   -0.068641
  20 H :    0.167221
  21 H :    0.160112
  22 H :    0.154216
  23 H :    0.190465
  24 H :    0.178877
  25 H :    0.197018
  26 H :    0.199116
  27 H :    0.179092
  28 H :    0.192417
  29 H :    0.173279
  30 H :    0.157216
  31 H :    0.159822
  32 H :    0.173782
  33 H :    0.180817
  34 H :    0.172135
  35 H :    0.168729
  36 H :    0.175373
  37 H :    0.176420

  Mayer bond orders larger than 0.100000
B(  0-C ,  1-C ) :   0.9372 B(  0-C , 20-H ) :   0.9693 B(  0-C , 21-H ) :   0.9646
B(  0-C , 22-H ) :   0.9728 B(  1-C ,  2-O ) :   0.8053 B(  1-C , 23-H ) :   0.9666
B(  1-C , 24-H ) :   0.9617 B(  2-O ,  3-C ) :   1.0706 B(  3-C ,  4-O ) :   1.8324
B(  3-C ,  5-C ) :   0.9265 B(  5-C ,  6-C ) :   0.9118 B(  5-C , 25-H ) :   0.9412
B(  5-C , 26-H ) :   0.9484 B(  6-C ,  7-H ) :   0.9000 B(  6-C ,  8-C ) :   0.9662
B(  6-C , 13-S ) :   0.8349 B(  8-C ,  9-O ) :   1.8059 B(  8-C , 10-O ) :   1.1542
B( 10-O , 11-C ) :   0.7824 B( 11-C , 12-C ) :   0.9458 B( 11-C , 27-H ) :   0.9611
B( 11-C , 28-H ) :   0.9684 B( 12-C , 29-H ) :   0.9574 B( 12-C , 30-H ) :   0.9727
B( 12-C , 31-H ) :   0.9650 B( 13-S , 14-P ) :   0.9811 B( 14-P , 15-S ) :   1.7546
B( 14-P , 16-O ) :   1.1969 B( 14-P , 18-O ) :   0.9941 B( 16-O , 17-C ) :   0.7985
B( 17-C , 32-H ) :   0.9578 B( 17-C , 33-H ) :   0.9647 B( 17-C , 34-H ) :   0.9638
B( 18-O , 19-C ) :   0.8435 B( 19-C , 35-H ) :   0.9511 B( 19-C , 36-H ) :   0.9685
B( 19-C , 37-H ) :   0.9574

Dispersion correction           -0.017773468
FINAL SINGLE POINT ENERGY     -1981.449318720228

DIPOLE MOMENT
-------------

Method             : SCF
Type of density    : Electron Density
Multiplicity       :   1
Irrep              :   0
Energy             : -1981.4693464154174762 Eh
Relativity type    :
Basis              : AO
                                X                 Y                 Z
Electronic contribution:     -6.406652922       5.310096732       0.036847369
Nuclear contribution   :      6.651314810      -5.699813964      -0.413464714
                        -----------------------------------------
Total Dipole Moment    :      0.244661888      -0.389717233      -0.376617345
                        -----------------------------------------
Magnitude (a.u.)       :      0.594625584
Magnitude (Debye)      :      1.511418121

Rotational constants in cm-1:             0.011450             0.008287             0.006008
Rotational constants in MHz :           343.266090           248.445457           180.119956

                             ****ORCA TERMINATED NORMALLY****
TOTAL RUN TIME: 0 days 0 hours 1 minutes 15 seconds 459 msec
