                         Program Version 6.0.1  -  RELEASE   -
|  1> ! r2scan-3c def2/J RI DEFGRID2 scfconv6 printgap
|  2> %output
|  3>     printlevel normal
|  4> end
|  5> %cpcm
|  6>     smd true
|  7>     smdsolvent "water"
|  8> end
|  9> * xyz 0 1
| 10> C 1.5135513926 -4.3056446479 -1.3430467997
| 11> C 2.7230565224 -3.5781587657 -0.7776979969
| 12> O 2.342215414 -2.3016091141 -0.2272680438
| 13> C 2.3692851321 -1.2476517265 -1.0157178343
| 14> O 2.7050009983 -1.2603248424 -2.1790027838
| 15> C 1.9173611271 0.0058809616 -0.2884599081
| 16> C 0.7800168724 0.6493945826 -1.0769947349
| 17> H 1.1031695221 0.7961824436 -2.1135515272
| 18> C 0.3384126875 1.9862980881 -0.5105721341
| 19> O -0.829876543 2.2528899632 -0.3101655667
| 20> O 1.3474623349 2.7870218165 -0.3132729215
| 21> C 1.1021464884 4.0803174712 0.2829461252
| 22> C 1.3056834405 4.0079060858 1.7869726023
| 23> S -0.6757605091 -0.4383471044 -1.1946444796
| 24> P -1.635187624 -0.0577997107 0.6738047529
| 25> S -0.5800951446 0.5357332434 2.2121057426
| 26> O -2.9632329875 0.7663124677 0.456737841
| 27> C -3.909670679 0.4628094869 -0.5850265123
| 28> O -2.280180759 -1.511644132 0.9200317667
| 29> C -1.4595695445 -2.6328163404 1.2542998225
| 30> H 1.0516029916 -3.7082547206 -2.1263411942
| 31> H 1.8314429778 -5.2538525409 -1.7637200787
| 32> H 0.7838282487 -4.4907265605 -0.5595471997
| 33> H 3.4709002372 -3.4088486082 -1.5574185099
| 34> H 3.1601856822 -4.121961197 0.0597750155
| 35> H 2.7506776017 0.7098357353 -0.2490050407
| 36> H 1.6063898873 -0.2467043378 0.726221339
| 37> H 1.8289064149 4.7421091213 -0.1886082349
| 38> H 0.0828335436 4.3904136082 0.0390516347
| 39> H 0.6137795263 3.2913928709 2.2267465524
| 40> H 2.3200270806 3.6949056455 2.0159383132
| 41> H 1.1242107472 4.9853580437 2.22097739
| 42> H -3.4350771215 0.5749114415 -1.5597817897
| 43> H -4.7063183452 1.1917093887 -0.4614186798
| 44> H -4.285730357 -0.5515041948 -0.4630203627
| 45> H -0.83717059 -2.9033898266 0.4010256017
| 46> H -2.1472335043 -3.4377463652 1.4997992906
| 47> H -0.8279291523 -2.3928896148 2.1113788047
| 48> *
| 49>
| 50>                          ****END OF INPUT****

CARTESIAN COORDINATES (ANGSTROEM)
---------------------------------
  C      1.513551   -4.305645   -1.343047
  C      2.723057   -3.578159   -0.777698
  O      2.342215   -2.301609   -0.227268
  C      2.369285   -1.247652   -1.015718
  O      2.705001   -1.260325   -2.179003
  C      1.917361    0.005881   -0.288460
  C      0.780017    0.649395   -1.076995
  H      1.103170    0.796182   -2.113552
  C      0.338413    1.986298   -0.510572
  O     -0.829877    2.252890   -0.310166
  O      1.347462    2.787022   -0.313273
  C      1.102146    4.080317    0.282946
  C      1.305683    4.007906    1.786973
  S     -0.675761   -0.438347   -1.194644
  P     -1.635188   -0.057800    0.673805
  S     -0.580095    0.535733    2.212106
  O     -2.963233    0.766312    0.456738
  C     -3.909671    0.462809   -0.585027
  O     -2.280181   -1.511644    0.920032
  C     -1.459570   -2.632816    1.254300
  H      1.051603   -3.708255   -2.126341
  H      1.831443   -5.253853   -1.763720
  H      0.783828   -4.490727   -0.559547
  H      3.470900   -3.408849   -1.557419
  H      3.160186   -4.121961    0.059775
  H      2.750678    0.709836   -0.249005
  H      1.606390   -0.246704    0.726221
  H      1.828906    4.742109   -0.188608
  H      0.082834    4.390414    0.039052
  H      0.613780    3.291393    2.226747
  H      2.320027    3.694906    2.015938
  H      1.124211    4.985358    2.220977
  H     -3.435077    0.574911   -1.559782
  H     -4.706318    1.191709   -0.461419
  H     -4.285730   -0.551504   -0.463020
  H     -0.837171   -2.903390    0.401026
  H     -2.147234   -3.437746    1.499799
  H     -0.827929   -2.392890    2.111379

 Total Charge           Charge          ....    0
 Multiplicity           Mult            ....    1
 Number of Electrons    NEL             ....  174
 Basis Dimension        Dim             ....  510

ORBITAL ENERGIES
----------------

  NO   OCC          E(Eh)            E(eV)
   0   2.0000     -88.579799     -2410.3789
   1   2.0000     -88.525725     -2408.9074
   2   2.0000     -76.921320     -2093.1355
   3   2.0000     -19.016721      -517.4713
   4   2.0000     -19.010080      -517.2906
   5   2.0000     -18.995707      -516.8995
   6   2.0000     -18.989304      -516.7252
   7   2.0000     -18.953228      -515.7436
   8   2.0000     -18.949169      -515.6331
   9   2.0000     -10.179462      -276.9973
  10   2.0000     -10.170893      -276.7641
  11   2.0000     -10.101875      -274.8860
  12   2.0000     -10.089275      -274.5431
  13   2.0000     -10.085801      -274.4486
  14   2.0000     -10.084422      -274.4111
  15   2.0000     -10.078660      -274.2543
  16   2.0000     -10.053972      -273.5825
  17   2.0000     -10.019826      -272.6533
  18   2.0000     -10.019599      -272.6471
  19   2.0000      -7.874068      -214.2643
  20   2.0000      -7.821155      -212.8245
  21   2.0000      -6.599108      -179.5709
  22   2.0000      -5.821091      -158.3999
  23   2.0000      -5.817869      -158.3123
  24   2.0000      -5.811094      -158.1279
  25   2.0000      -5.768985      -156.9821
  26   2.0000      -5.761588      -156.7808
  27   2.0000      -5.760694      -156.7564
  28   2.0000      -4.744814      -129.1129
  29   2.0000      -4.744226      -129.0969
  30   2.0000      -4.742670      -129.0546
  31   2.0000      -1.096650       -29.8414
  32   2.0000      -1.087361       -29.5886
  33   2.0000      -1.051810       -28.6212
  34   2.0000      -1.008475       -27.4420
  35   2.0000      -1.003672       -27.3113
  36   2.0000      -0.997164       -27.1342
  37   2.0000      -0.814000       -22.1501
  38   2.0000      -0.749321       -20.3901
  39   2.0000      -0.746454       -20.3121
  40   2.0000      -0.728603       -19.8263
  41   2.0000      -0.696000       -18.9391
  42   2.0000      -0.667030       -18.1508
  43   2.0000      -0.661958       -18.0128
  44   2.0000      -0.656652       -17.8684
  45   2.0000      -0.624465       -16.9926
  46   2.0000      -0.596780       -16.2392
  47   2.0000      -0.540606       -14.7106
  48   2.0000      -0.529221       -14.4008
  49   2.0000      -0.523143       -14.2354
  50   2.0000      -0.511357       -13.9147
  51   2.0000      -0.490498       -13.3471
  52   2.0000      -0.480741       -13.0816
  53   2.0000      -0.476168       -12.9572
  54   2.0000      -0.463355       -12.6085
  55   2.0000      -0.455517       -12.3952
  56   2.0000      -0.449912       -12.2427
  57   2.0000      -0.445742       -12.1292
  58   2.0000      -0.442190       -12.0326
  59   2.0000      -0.426543       -11.6068
  60   2.0000      -0.418303       -11.3826
  61   2.0000      -0.413337       -11.2475
  62   2.0000      -0.408330       -11.1112
  63   2.0000      -0.406778       -11.0690
  64   2.0000      -0.399253       -10.8642
  65   2.0000      -0.378769       -10.3068
  66   2.0000      -0.375440       -10.2162
  67   2.0000      -0.365869        -9.9558
  68   2.0000      -0.361339        -9.8325
  69   2.0000      -0.351775        -9.5723
  70   2.0000      -0.349731        -9.5167
  71   2.0000      -0.342802        -9.3281
  72   2.0000      -0.341495        -9.2926
  73   2.0000      -0.327715        -8.9176
  74   2.0000      -0.318789        -8.6747
  75   2.0000      -0.313644        -8.5347
  76   2.0000      -0.309762        -8.4291
  77   2.0000      -0.306483        -8.3398
  78   2.0000      -0.291496        -7.9320
  79   2.0000      -0.286269        -7.7898
  80   2.0000      -0.284234        -7.7344
  81   2.0000      -0.276094        -7.5129
  82   2.0000      -0.268144        -7.2966
  83   2.0000      -0.258436        -7.0324
  84   2.0000      -0.244356        -6.6493
  85   2.0000      -0.224861        -6.1188
  86   2.0000      -0.221297        -6.0218
  87   0.0000      -0.052564        -1.4303
  88   0.0000      -0.042372        -1.1530
  89   0.0000      -0.020782        -0.5655
  90   0.0000      -0.003933        -0.1070
  91   0.0000       0.013752         0.3742

MULLIKEN ATOMIC CHARGES
-----------------------
   0 C :   -0.504862
   1 C :   -0.136500
   2 O :   -0.175886
   3 C :    0.405634
   4 O :   -0.491494
   5 C :   -0.421946
   6 C :   -0.009015
   7 H :    0.246988
   8 C :    0.341117
   9 O :   -0.446234
  10 O :   -0.168347
  11 C :   -0.138714
  12 C :   -0.496978
  13 S :   -0.183849
  14 P :    0.806293
  15 S :   -0.505379
  16 O :   -0.351642
  17 C :   -0.305911
  18 O :   -0.397318
  19 C :   -0.317019
  20 H :    0.171830
  21 H :    0.172265
  22 H :    0.169609
  23 H :    0.175205
  24 H :    0.177006
  25 H :    0.224978
  26 H :    0.207603
  27 H :    0.179106
  28 H :    0.182041
  29 H :    0.170245
  30 H :    0.170222
  31 H :    0.172755
  32 H :    0.179578
  33 H :    0.181911
  34 H :    0.185393
  35 H :    0.173927
  36 H :    0.178804
  37 H :    0.178583
Sum of atomic charges:    0.0000000

LOEWDIN ATOMIC CHARGES
----------------------
   0 C :   -0.393826
   1 C :    0.036436
   2 O :   -0.583274
   3 C :    0.355458
   4 O :   -0.484078
   5 C :   -0.203745
   6 C :   -0.187370
   7 H :    0.226840
   8 C :    0.359690
   9 O :   -0.500091
  10 O :   -0.567204
  11 C :    0.044074
  12 C :   -0.392913
  13 S :    0.217364
  14 P :    0.412806
  15 S :   -0.117065
  16 O :   -0.669818
  17 C :   -0.043386
  18 O :   -0.707335
  19 C :   -0.063239
  20 H :    0.164051
  21 H :    0.168670
  22 H :    0.161953
  23 H :    0.192166
  24 H :    0.190477
  25 H :    0.209476
  26 H :    0.198468
  27 H :    0.192224
  28 H :    0.193951
  29 H :    0.164294
  30 H :    0.162979
  31 H :    0.169040
  32 H :    0.179338
  33 H :    0.191780
  34 H :    0.181096
  35 H :    0.176029
  36 H :    0.187876
  37 H :    0.176809

  Mayer bond orders larger than 0.100000
B(  0-C ,  1-C ) :   0.9299 B(  0-C , 20-H ) :   0.9686 B(  0-C , 21-H ) :   0.9590
B(  0-C , 22-H ) :   0.9675 B(  1-C ,  2-O ) :   0.7892 B(  1-C , 23-H ) :   0.9625
B(  1-C , 24-H ) :   0.9518 B(  2-O ,  3-C ) :   1.0906 B(  3-C ,  4-O ) :   1.7850
B(  3-C ,  5-C ) :   0.9372 B(  5-C ,  6-C ) :   0.8986 B(  5-C , 25-H ) :   0.9295
B(  5-C , 26-H ) :   0.9473 B(  6-C ,  7-H ) :   0.8793 B(  6-C ,  8-C ) :   0.9849
B(  6-C , 13-S ) :   0.8144 B(  8-C ,  9-O ) :   1.7709 B(  8-C , 10-O ) :   1.1731
B( 10-O , 11-C ) :   0.7667 B( 11-C , 12-C ) :   0.9332 B( 11-C , 27-H ) :   0.9509
B( 11-C , 28-H ) :   0.9653 B( 12-C , 29-H ) :   0.9624 B( 12-C , 30-H ) :   0.9699
B( 12-C , 31-H ) :   0.9598 B( 13-S , 14-P ) :   0.9992 B( 14-P , 15-S ) :   1.7581
B( 14-P , 16-O ) :   1.1849 B( 14-P , 18-O ) :   0.9951 B( 16-O , 17-C ) :   0.7921
B( 17-C , 32-H ) :   0.9486 B( 17-C , 33-H ) :   0.9541 B( 17-C , 34-H ) :   0.9541
B( 18-O , 19-C ) :   0.8334 B( 19-C , 35-H ) :   0.9447 B( 19-C , 36-H ) :   0.9584
B( 19-C , 37-H ) :   0.9540

Dispersion correction           -0.017773468
FINAL SINGLE POINT ENERGY     -1981.462693994288

DIPOLE MOMENT
-------------

Method             : SCF
Type of density    : Electron Density
Multiplicity       :   1
Irrep              :   0
Energy             : -1981.4827216894777848 Eh
Relativity type    :
Basis              : AO
                                X                 Y                 Z
Electronic contribution:     -6.060429725       5.024101918      -0.195229707
Nuclear contribution   :      6.651314810      -5.699813964      -0.413464714
                        -----------------------------------------
Total Dipole Moment    :      0.590885086      -0.675712046      -0.608694421
                        -----------------------------------------
Magnitude (a.u.)       :      1.084546381
Magnitude (Debye)      :      2.756697822

Rotational constants in cm-1:             0.011450             0.008287             0.006008
Rotational constants in MHz :           343.266090           248.445457           180.119956

                             ****ORCA TERMINATED NORMALLY****
TOTAL RUN TIME: 0 days 0 hours 1 minutes 58 seconds 535 msec
