                         Program Version 6.0.0  -   RELEASE  -
|  1> ! pbe def2-sv(p) def2/J RI DEFGRID1 loosescf d4 GCP(DFT/SV(P)) printgap
|  2> %output
|  3>     printlevel normal
|  4> end
|  5> * xyz 0 1
|  6> C 5.2366862446 -1.3434226984 -2.0652075578
|  7> C 3.7435406764 -1.3032341331 -1.8098945477
|  8> O 3.5210489212 -0.5542984857 -0.6002493572
|  9> P 2.0610896981 -0.0767894329 -0.174743127
| 10> S 1.1223097133 0.8864691769 -1.606526837
| 11> O 2.3991297824 0.6677456864 1.1719487284
| 12> C 2.6068348975 2.0919097048 1.2447157173
| 13> C 3.8624481377 2.5133675529 0.5119570925
| 14> S 1.1576074295 -1.8548850304 0.5234101086
| 15> C -0.2786434805 -1.955364839 -0.6024778408
| 16> S -1.8850810738 -1.8585094896 0.2263325223
| 17> P -2.0446493482 0.2486321867 0.4940089258
| 18> S -0.7115022609 1.1240541766 1.6290602422
| 19> O -3.538023388 0.3780667623 1.018381442
| 20> C -3.9088084057 -0.016818874 2.3554696409
| 21> C -5.2644543702 0.5884426919 2.65732014
| 22> O -2.1291944031 0.8826682346 -0.9384754286
| 23> C -3.120101455 0.4870208407 -1.9269068255
| 24> C -2.527850326 0.7240015853 -3.3001253721
| 25> H 5.6201864706 -0.3367710197 -2.2043056271
| 26> H 5.7432742051 -1.7987688038 -1.2192829791
| 27> H 5.4294501356 -1.9276980541 -2.9588329137
| 28> H 3.33642172 -2.309200832 -1.6701285616
| 29> H 3.2077850228 -0.8090371739 -2.6276076442
| 30> H 1.7217184621 2.5928138508 0.8385110917
| 31> H 2.6678764784 2.2880424836 2.3160041598
| 32> H 4.7169825817 1.955287309 0.8853974374
| 33> H 3.75093697 2.3171010066 -0.5541126943
| 34> H 4.0261097549 3.5759636328 0.6613634338
| 35> H -0.2560655107 -2.9330410389 -1.0757077275
| 36> H -0.1964890587 -1.1484914688 -1.3368841666
| 37> H -3.9403490165 -1.1090106508 2.3899417751
| 38> H -3.1420885064 0.342559383 3.0497723844
| 39> H -5.9963973568 0.235084013 1.9371151722
| 40> H -5.5702549384 0.2949839702 3.6560448412
| 41> H -5.2094184294 1.6720712137 2.6025105291
| 42> H -3.3729905346 -0.5654342246 -1.770145703
| 43> H -4.0053417361 1.1018080132 -1.7576214372
| 44> H -1.6250031885 0.1334273115 -3.4326717688
| 45> H -3.2556103882 0.4457824807 -4.0552089127
| 46> H -2.2654700787 1.7716702195 -3.4164325214
| 47> *
| 48>
| 49>                          ****END OF INPUT****

CARTESIAN COORDINATES (ANGSTROEM)
---------------------------------
  C      5.236686   -1.343423   -2.065208
  C      3.743541   -1.303234   -1.809895
  O      3.521049   -0.554298   -0.600249
  P      2.061090   -0.076789   -0.174743
  S      1.122310    0.886469   -1.606527
  O      2.399130    0.667746    1.171949
  C      2.606835    2.091910    1.244716
  C      3.862448    2.513368    0.511957
  S      1.157607   -1.854885    0.523410
  C     -0.278643   -1.955365   -0.602478
  S     -1.885081   -1.858509    0.226333
  P     -2.044649    0.248632    0.494009
  S     -0.711502    1.124054    1.629060
  O     -3.538023    0.378067    1.018381
  C     -3.908808   -0.016819    2.355470
  C     -5.264454    0.588443    2.657320
  O     -2.129194    0.882668   -0.938475
  C     -3.120101    0.487021   -1.926907
  C     -2.527850    0.724002   -3.300125
  H      5.620186   -0.336771   -2.204306
  H      5.743274   -1.798769   -1.219283
  H      5.429450   -1.927698   -2.958833
  H      3.336422   -2.309201   -1.670129
  H      3.207785   -0.809037   -2.627608
  H      1.721718    2.592814    0.838511
  H      2.667876    2.288042    2.316004
  H      4.716983    1.955287    0.885397
  H      3.750937    2.317101   -0.554113
  H      4.026110    3.575964    0.661363
  H     -0.256066   -2.933041   -1.075708
  H     -0.196489   -1.148491   -1.336884
  H     -3.940349   -1.109011    2.389942
  H     -3.142089    0.342559    3.049772
  H     -5.996397    0.235084    1.937115
  H     -5.570255    0.294984    3.656045
  H     -5.209418    1.672071    2.602511
  H     -3.372991   -0.565434   -1.770146
  H     -4.005342    1.101808   -1.757621
  H     -1.625003    0.133427   -3.432672
  H     -3.255610    0.445782   -4.055209
  H     -2.265470    1.771670   -3.416433

 Total Charge           Charge          ....    0
 Multiplicity           Mult            ....    1
 Number of Electrons    NEL             ....  202
 Basis Dimension        Dim             ....  334

ORBITAL ENERGIES
----------------

  NO   OCC          E(Eh)            E(eV)
   0   2.0000     -88.040253     -2395.6971
   1   2.0000     -88.036206     -2395.5869
   2   2.0000     -87.983735     -2394.1591
   3   2.0000     -87.974913     -2393.9191
   4   2.0000     -76.420126     -2079.4974
   5   2.0000     -76.419960     -2079.4928
   6   2.0000     -18.789355      -511.2843
   7   2.0000     -18.788978      -511.2741
   8   2.0000     -18.782722      -511.1039
   9   2.0000     -18.781087      -511.0594
  10   2.0000      -9.955254      -270.8962
  11   2.0000      -9.953144      -270.8388
  12   2.0000      -9.952051      -270.8091
  13   2.0000      -9.946765      -270.6652
  14   2.0000      -9.943267      -270.5701
  15   2.0000      -9.887894      -269.0633
  16   2.0000      -9.885291      -268.9924
  17   2.0000      -9.884798      -268.9790
  18   2.0000      -9.876533      -268.7541
  19   2.0000      -7.685455      -209.1319
  20   2.0000      -7.681627      -209.0277
  21   2.0000      -7.628646      -207.5860
  22   2.0000      -7.619967      -207.3498
  23   2.0000      -6.417670      -174.6337
  24   2.0000      -6.417592      -174.6316
  25   2.0000      -5.713088      -155.4610
  26   2.0000      -5.709857      -155.3731
  27   2.0000      -5.709487      -155.3630
  28   2.0000      -5.706233      -155.2745
  29   2.0000      -5.702762      -155.1800
  30   2.0000      -5.698463      -155.0630
  31   2.0000      -5.657348      -153.9443
  32   2.0000      -5.649761      -153.7378
  33   2.0000      -5.648972      -153.7163
  34   2.0000      -5.648487      -153.7032
  35   2.0000      -5.640553      -153.4872
  36   2.0000      -5.640048      -153.4735
  37   2.0000      -4.640663      -126.2788
  38   2.0000      -4.639766      -126.2545
  39   2.0000      -4.639609      -126.2502
  40   2.0000      -4.639257      -126.2406
  41   2.0000      -4.638499      -126.2200
  42   2.0000      -4.637535      -126.1938
  43   2.0000      -0.985890       -26.8274
  44   2.0000      -0.979496       -26.6534
  45   2.0000      -0.942615       -25.6499
  46   2.0000      -0.936735       -25.4899
  47   2.0000      -0.757511       -20.6129
  48   2.0000      -0.719037       -19.5660
  49   2.0000      -0.708562       -19.2810
  50   2.0000      -0.690515       -18.7899
  51   2.0000      -0.682469       -18.5709
  52   2.0000      -0.670371       -18.2417
  53   2.0000      -0.645424       -17.5629
  54   2.0000      -0.630503       -17.1569
  55   2.0000      -0.595083       -16.1930
  56   2.0000      -0.579514       -15.7694
  57   2.0000      -0.569504       -15.4970
  58   2.0000      -0.562954       -15.3187
  59   2.0000      -0.557160       -15.1611
  60   2.0000      -0.509321       -13.8593
  61   2.0000      -0.496709       -13.5161
  62   2.0000      -0.481287       -13.0965
  63   2.0000      -0.468993       -12.7619
  64   2.0000      -0.454807       -12.3759
  65   2.0000      -0.443377       -12.0649
  66   2.0000      -0.436829       -11.8867
  67   2.0000      -0.430805       -11.7228
  68   2.0000      -0.427356       -11.6290
  69   2.0000      -0.415965       -11.3190
  70   2.0000      -0.403545       -10.9810
  71   2.0000      -0.391338       -10.6488
  72   2.0000      -0.389915       -10.6101
  73   2.0000      -0.379782       -10.3344
  74   2.0000      -0.375828       -10.2268
  75   2.0000      -0.368509       -10.0276
  76   2.0000      -0.362385        -9.8610
  77   2.0000      -0.354380        -9.6432
  78   2.0000      -0.353193        -9.6109
  79   2.0000      -0.348155        -9.4738
  80   2.0000      -0.345255        -9.3949
  81   2.0000      -0.340270        -9.2592
  82   2.0000      -0.337971        -9.1967
  83   2.0000      -0.335098        -9.1185
  84   2.0000      -0.329983        -8.9793
  85   2.0000      -0.313254        -8.5241
  86   2.0000      -0.306738        -8.3468
  87   2.0000      -0.299115        -8.1393
  88   2.0000      -0.296557        -8.0697
  89   2.0000      -0.294782        -8.0214
  90   2.0000      -0.278998        -7.5919
  91   2.0000      -0.269774        -7.3409
  92   2.0000      -0.267230        -7.2717
  93   2.0000      -0.257879        -7.0173
  94   2.0000      -0.253025        -6.8852
  95   2.0000      -0.236479        -6.4349
  96   2.0000      -0.219378        -5.9696
  97   2.0000      -0.205882        -5.6023
  98   2.0000      -0.202545        -5.5115
  99   2.0000      -0.186249        -5.0681
 100   2.0000      -0.183447        -4.9918
 101   0.0000      -0.035228        -0.9586
 102   0.0000      -0.027145        -0.7387
 103   0.0000      -0.008826        -0.2402
 104   0.0000       0.006337         0.1724
 105   0.0000       0.026359         0.7173

MULLIKEN ATOMIC CHARGES
-----------------------
   0 C :   -0.279174
   1 C :   -0.005636
   2 O :   -0.373954
   3 P :    0.616774
   4 S :   -0.322623
   5 O :   -0.360049
   6 C :   -0.005486
   7 C :   -0.303684
   8 S :   -0.071135
   9 C :   -0.366004
  10 S :   -0.114952
  11 P :    0.599644
  12 S :   -0.303926
  13 O :   -0.387801
  14 C :   -0.013046
  15 C :   -0.280875
  16 O :   -0.348273
  17 C :   -0.013915
  18 C :   -0.284592
  19 H :    0.118077
  20 H :    0.117147
  21 H :    0.108619
  22 H :    0.090615
  23 H :    0.097005
  24 H :    0.124709
  25 H :    0.105973
  26 H :    0.114989
  27 H :    0.122849
  28 H :    0.109905
  29 H :    0.179872
  30 H :    0.200987
  31 H :    0.104543
  32 H :    0.107885
  33 H :    0.113761
  34 H :    0.112594
  35 H :    0.122030
  36 H :    0.099442
  37 H :    0.108574
  38 H :    0.127105
  39 H :    0.107768
  40 H :    0.124260
Sum of atomic charges:   -0.0000000

LOEWDIN ATOMIC CHARGES
----------------------
   0 C :   -0.350153
   1 C :   -0.124922
   2 O :   -0.251982
   3 P :    0.574215
   4 S :   -0.304321
   5 O :   -0.229454
   6 C :   -0.115168
   7 C :   -0.365837
   8 S :    0.084471
   9 C :   -0.484249
  10 S :    0.059992
  11 P :    0.561449
  12 S :   -0.302175
  13 O :   -0.253928
  14 C :   -0.119579
  15 C :   -0.350658
  16 O :   -0.227795
  17 C :   -0.115007
  18 C :   -0.351576
  19 H :    0.127396
  20 H :    0.127215
  21 H :    0.129037
  22 H :    0.103294
  23 H :    0.103641
  24 H :    0.112906
  25 H :    0.120269
  26 H :    0.125502
  27 H :    0.121466
  28 H :    0.129704
  29 H :    0.135366
  30 H :    0.118944
  31 H :    0.109071
  32 H :    0.110496
  33 H :    0.125532
  34 H :    0.131163
  35 H :    0.129783
  36 H :    0.101649
  37 H :    0.116979
  38 H :    0.127189
  39 H :    0.128590
  40 H :    0.131485

  Mayer bond orders larger than 0.100000
B(  0-C ,  1-C ) :   1.1612 B(  0-C , 19-H ) :   0.9522 B(  0-C , 20-H ) :   0.9506
B(  0-C , 21-H ) :   0.9425 B(  1-C ,  2-O ) :   0.9165 B(  1-C , 22-H ) :   0.9219
B(  1-C , 23-H ) :   0.9097 B(  2-O ,  3-P ) :   1.0869 B(  3-P ,  4-S ) :   1.5841
B(  3-P ,  5-O ) :   1.1580 B(  3-P ,  8-S ) :   0.9545 B(  4-S ,  8-S ) :   0.1184
B(  4-S , 30-H ) :   0.1119 B(  5-O ,  6-C ) :   0.8953 B(  6-C ,  7-C ) :   1.1633
B(  6-C , 24-H ) :   0.9148 B(  6-C , 25-H ) :   0.9356 B(  7-C , 26-H ) :   0.9451
B(  7-C , 27-H ) :   0.9349 B(  7-C , 28-H ) :   0.9386 B(  8-S ,  9-C ) :   1.0067
B(  9-C , 10-S ) :   0.9951 B(  9-C , 29-H ) :   0.9122 B(  9-C , 30-H ) :   0.8448
B( 10-S , 11-P ) :   0.9500 B( 10-S , 12-S ) :   0.1109 B( 11-P , 12-S ) :   1.6768
B( 11-P , 13-O ) :   1.0774 B( 11-P , 16-O ) :   1.1423 B( 13-O , 14-C ) :   0.9068
B( 14-C , 15-C ) :   1.1604 B( 14-C , 31-H ) :   0.9295 B( 14-C , 32-H ) :   0.9092
B( 15-C , 33-H ) :   0.9511 B( 15-C , 34-H ) :   0.9419 B( 15-C , 35-H ) :   0.9509
B( 16-O , 17-C ) :   0.8890 B( 17-C , 18-C ) :   1.1621 B( 17-C , 36-H ) :   0.9094
B( 17-C , 37-H ) :   0.9321 B( 18-C , 38-H ) :   0.9475 B( 18-C , 39-H ) :   0.9401
B( 18-C , 40-H ) :   0.9479

Dispersion correction           -0.064653206
FINAL SINGLE POINT ENERGY     -2929.518337307159

DIPOLE MOMENT
-------------

Method             : SCF
Type of density    : Electron Density
Multiplicity       :   1
Irrep              :   0
Energy             : -2929.6370676999545140 Eh
Relativity type    :
Basis              : AO
                                X                 Y                 Z
Electronic contribution:     -1.798733075      -5.886490327       8.791930754
Nuclear contribution   :      1.297838129       5.347312305      -9.437904496
                        -----------------------------------------
Total Dipole Moment    :     -0.500894946      -0.539178022      -0.645973742
                        -----------------------------------------
Magnitude (a.u.)       :      0.979229677
Magnitude (Debye)      :      2.489004036

Rotational constants in cm-1:             0.012774             0.004803             0.004529
Rotational constants in MHz :           382.949907           143.993521           135.788907

                             ****ORCA TERMINATED NORMALLY****
TOTAL RUN TIME: 0 days 0 hours 0 minutes 20 seconds 586 msec
