                         Program Version 6.0.0  -   RELEASE  -
|  1> ! pbe def2-sv(p) def2/J RI DEFGRID1 loosescf d4 GCP(DFT/SV(P)) printgap
|  2> %output
|  3>     printlevel normal
|  4> end
|  5> * xyz 0 1
|  6> C 4.7267703012 -1.0750588285 -1.2603374434
|  7> C 4.2721882986 0.3653973552 -1.3728719435
|  8> O 3.2363173051 0.6717785518 -0.4232811357
|  9> P 1.7779947347 0.0602176231 -0.5573581727
| 10> S 1.1305883312 -0.0322841637 -2.406322777
| 11> O 0.9271363231 0.9815132513 0.4141216052
| 12> C 1.4698499643 1.8766332862 1.4189040424
| 13> C 2.1021211871 1.1346686245 2.5772340521
| 14> S 1.8542412985 -1.7917192633 0.4822053597
| 15> C 0.1357117636 -1.7934045402 1.0796094781
| 16> S -1.1202725208 -1.5851224882 -0.2210744146
| 17> P -1.9051925869 0.3929077999 0.1160178816
| 18> S -1.5044366788 1.9369082769 -1.0257180039
| 19> O -1.661176521 0.6481922431 1.655535343
| 20> C -2.4362257574 -0.0404144639 2.6819748581
| 21> C -1.703417979 0.0990967015 4.0000425086
| 22> O -3.4690686401 0.0607780068 0.099396044
| 23> C -4.2443495238 0.1153584288 -1.1056619668
| 24> C -3.827118293 -0.9539266009 -2.0950380256
| 25> H 3.9128334823 -1.7415664927 -1.5452085692
| 26> H 5.5656859333 -1.2403129399 -1.9284858706
| 27> H 5.0251691681 -1.3026531637 -0.240398461
| 28> H 3.8933431967 0.5733501582 -2.3788184582
| 29> H 5.0709853342 1.0650216472 -1.1233174703
| 30> H 2.1903394505 2.5351245438 0.931561854
| 31> H 0.5950468716 2.4528265013 1.7276230667
| 32> H 2.9300167805 0.5227742572 2.2263128353
| 33> H 2.4767144623 1.8620886869 3.2907656684
| 34> H 1.3737714479 0.49940501 3.0736810668
| 35> H 0.0152274522 -1.00373395 1.8158921991
| 36> H -0.0217740908 -2.7779447706 1.5130991941
| 37> H -3.4166930542 0.4364112555 2.7200433594
| 38> H -2.561423159 -1.0859058052 2.3901864463
| 39> H -1.5071977232 1.147479414 4.2062049689
| 40> H -2.3268438217 -0.3084019336 4.789514318
| 41> H -0.7612085458 -0.4420117481 3.9851701922
| 42> H -5.2707263476 -0.0268744562 -0.765099684
| 43> H -4.1295178466 1.111049168 -1.5468443132
| 44> H -2.8020510414 -0.7720923607 -2.4235139195
| 45> H -3.8766137406 -1.9388679015 -1.6375253094
| 46> H -4.4794508728 -0.9221325894 -2.9615790819
| 47> *
| 48>
| 49>                          ****END OF INPUT****

CARTESIAN COORDINATES (ANGSTROEM)
---------------------------------
  C      4.726770   -1.075059   -1.260337
  C      4.272188    0.365397   -1.372872
  O      3.236317    0.671779   -0.423281
  P      1.777995    0.060218   -0.557358
  S      1.130588   -0.032284   -2.406323
  O      0.927136    0.981513    0.414122
  C      1.469850    1.876633    1.418904
  C      2.102121    1.134669    2.577234
  S      1.854241   -1.791719    0.482205
  C      0.135712   -1.793405    1.079609
  S     -1.120273   -1.585122   -0.221074
  P     -1.905193    0.392908    0.116018
  S     -1.504437    1.936908   -1.025718
  O     -1.661177    0.648192    1.655535
  C     -2.436226   -0.040414    2.681975
  C     -1.703418    0.099097    4.000043
  O     -3.469069    0.060778    0.099396
  C     -4.244350    0.115358   -1.105662
  C     -3.827118   -0.953927   -2.095038
  H      3.912833   -1.741566   -1.545209
  H      5.565686   -1.240313   -1.928486
  H      5.025169   -1.302653   -0.240398
  H      3.893343    0.573350   -2.378818
  H      5.070985    1.065022   -1.123317
  H      2.190339    2.535125    0.931562
  H      0.595047    2.452827    1.727623
  H      2.930017    0.522774    2.226313
  H      2.476714    1.862089    3.290766
  H      1.373771    0.499405    3.073681
  H      0.015227   -1.003734    1.815892
  H     -0.021774   -2.777945    1.513099
  H     -3.416693    0.436411    2.720043
  H     -2.561423   -1.085906    2.390186
  H     -1.507198    1.147479    4.206205
  H     -2.326844   -0.308402    4.789514
  H     -0.761209   -0.442012    3.985170
  H     -5.270726   -0.026874   -0.765100
  H     -4.129518    1.111049   -1.546844
  H     -2.802051   -0.772092   -2.423514
  H     -3.876614   -1.938868   -1.637525
  H     -4.479451   -0.922133   -2.961579

 Total Charge           Charge          ....    0
 Multiplicity           Mult            ....    1
 Number of Electrons    NEL             ....  202
 Basis Dimension        Dim             ....  334

ORBITAL ENERGIES
----------------

  NO   OCC          E(Eh)            E(eV)
   0   2.0000     -88.036697     -2395.6003
   1   2.0000     -88.035531     -2395.5686
   2   2.0000     -87.972452     -2393.8521
   3   2.0000     -87.971072     -2393.8146
   4   2.0000     -76.421367     -2079.5311
   5   2.0000     -76.419491     -2079.4801
   6   2.0000     -18.793707      -511.4028
   7   2.0000     -18.792560      -511.3716
   8   2.0000     -18.786455      -511.2054
   9   2.0000     -18.781127      -511.0604
  10   2.0000      -9.961737      -271.0727
  11   2.0000      -9.959511      -271.0121
  12   2.0000      -9.951959      -270.8066
  13   2.0000      -9.951777      -270.8016
  14   2.0000      -9.944001      -270.5900
  15   2.0000      -9.899960      -269.3916
  16   2.0000      -9.888104      -269.0690
  17   2.0000      -9.885644      -269.0020
  18   2.0000      -9.878148      -268.7981
  19   2.0000      -7.680916      -209.0083
  20   2.0000      -7.680889      -209.0076
  21   2.0000      -7.617523      -207.2833
  22   2.0000      -7.616195      -207.2472
  23   2.0000      -6.418375      -174.6529
  24   2.0000      -6.416474      -174.6011
  25   2.0000      -5.709098      -155.3524
  26   2.0000      -5.708750      -155.3430
  27   2.0000      -5.705546      -155.2558
  28   2.0000      -5.705369      -155.2510
  29   2.0000      -5.697757      -155.0438
  30   2.0000      -5.697739      -155.0433
  31   2.0000      -5.646641      -153.6529
  32   2.0000      -5.645585      -153.6242
  33   2.0000      -5.638344      -153.4271
  34   2.0000      -5.637310      -153.3990
  35   2.0000      -5.636907      -153.3880
  36   2.0000      -5.635785      -153.3575
  37   2.0000      -4.641807      -126.3100
  38   2.0000      -4.640041      -126.2619
  39   2.0000      -4.639760      -126.2543
  40   2.0000      -4.638311      -126.2149
  41   2.0000      -4.638164      -126.2109
  42   2.0000      -4.636267      -126.1592
  43   2.0000      -0.986811       -26.8525
  44   2.0000      -0.984235       -26.7824
  45   2.0000      -0.942284       -25.6409
  46   2.0000      -0.938864       -25.5478
  47   2.0000      -0.756930       -20.5971
  48   2.0000      -0.719208       -19.5706
  49   2.0000      -0.709690       -19.3116
  50   2.0000      -0.690580       -18.7916
  51   2.0000      -0.686229       -18.6733
  52   2.0000      -0.671438       -18.2708
  53   2.0000      -0.647152       -17.6099
  54   2.0000      -0.628843       -17.1117
  55   2.0000      -0.592020       -16.1097
  56   2.0000      -0.582042       -15.8382
  57   2.0000      -0.578461       -15.7407
  58   2.0000      -0.577583       -15.7168
  59   2.0000      -0.557534       -15.1713
  60   2.0000      -0.506201       -13.7744
  61   2.0000      -0.493948       -13.4410
  62   2.0000      -0.470408       -12.8005
  63   2.0000      -0.469003       -12.7622
  64   2.0000      -0.463191       -12.6041
  65   2.0000      -0.450339       -12.2544
  66   2.0000      -0.437758       -11.9120
  67   2.0000      -0.435003       -11.8370
  68   2.0000      -0.427545       -11.6341
  69   2.0000      -0.421892       -11.4803
  70   2.0000      -0.412318       -11.2198
  71   2.0000      -0.394899       -10.7458
  72   2.0000      -0.391634       -10.6569
  73   2.0000      -0.381955       -10.3935
  74   2.0000      -0.377500       -10.2723
  75   2.0000      -0.368216       -10.0197
  76   2.0000      -0.365806        -9.9541
  77   2.0000      -0.362332        -9.8595
  78   2.0000      -0.360357        -9.8058
  79   2.0000      -0.353124        -9.6090
  80   2.0000      -0.349932        -9.5221
  81   2.0000      -0.343937        -9.3590
  82   2.0000      -0.341150        -9.2832
  83   2.0000      -0.335636        -9.1331
  84   2.0000      -0.323830        -8.8119
  85   2.0000      -0.320849        -8.7307
  86   2.0000      -0.315440        -8.5836
  87   2.0000      -0.307025        -8.3546
  88   2.0000      -0.294479        -8.0132
  89   2.0000      -0.292461        -7.9583
  90   2.0000      -0.282901        -7.6981
  91   2.0000      -0.271503        -7.3880
  92   2.0000      -0.266834        -7.2609
  93   2.0000      -0.254966        -6.9380
  94   2.0000      -0.252513        -6.8712
  95   2.0000      -0.233845        -6.3632
  96   2.0000      -0.221774        -6.0348
  97   2.0000      -0.193093        -5.2543
  98   2.0000      -0.187485        -5.1017
  99   2.0000      -0.182425        -4.9640
 100   2.0000      -0.170333        -4.6350
 101   0.0000      -0.048063        -1.3079
 102   0.0000      -0.035156        -0.9567
 103   0.0000      -0.010086        -0.2745
 104   0.0000      -0.006641        -0.1807
 105   0.0000       0.013241         0.3603

MULLIKEN ATOMIC CHARGES
-----------------------
   0 C :   -0.328103
   1 C :   -0.000350
   2 O :   -0.380639
   3 P :    0.603719
   4 S :   -0.271994
   5 O :   -0.377244
   6 C :    0.021518
   7 C :   -0.337063
   8 S :   -0.107935
   9 C :   -0.380729
  10 S :   -0.097639
  11 P :    0.615928
  12 S :   -0.282198
  13 O :   -0.382005
  14 C :   -0.023072
  15 C :   -0.294018
  16 O :   -0.388719
  17 C :    0.001690
  18 C :   -0.332922
  19 H :    0.133727
  20 H :    0.117204
  21 H :    0.118114
  22 H :    0.115843
  23 H :    0.103296
  24 H :    0.110418
  25 H :    0.112361
  26 H :    0.127818
  27 H :    0.111105
  28 H :    0.121910
  29 H :    0.215563
  30 H :    0.179011
  31 H :    0.116129
  32 H :    0.107270
  33 H :    0.125940
  34 H :    0.115559
  35 H :    0.128687
  36 H :    0.098003
  37 H :    0.110234
  38 H :    0.140573
  39 H :    0.118625
  40 H :    0.114384
Sum of atomic charges:    0.0000000

LOEWDIN ATOMIC CHARGES
----------------------
   0 C :   -0.371633
   1 C :   -0.120636
   2 O :   -0.243545
   3 P :    0.566506
   4 S :   -0.290077
   5 O :   -0.241464
   6 C :   -0.106730
   7 C :   -0.368344
   8 S :    0.053266
   9 C :   -0.480113
  10 S :    0.077200
  11 P :    0.574355
  12 S :   -0.285228
  13 O :   -0.246933
  14 C :   -0.115200
  15 C :   -0.352563
  16 O :   -0.254873
  17 C :   -0.123140
  18 C :   -0.373278
  19 H :    0.122826
  20 H :    0.133616
  21 H :    0.123930
  22 H :    0.112614
  23 H :    0.117736
  24 H :    0.116872
  25 H :    0.121354
  26 H :    0.122004
  27 H :    0.131483
  28 H :    0.120098
  29 H :    0.123623
  30 H :    0.137067
  31 H :    0.120131
  32 H :    0.108030
  33 H :    0.131722
  34 H :    0.133712
  35 H :    0.121684
  36 H :    0.115455
  37 H :    0.108632
  38 H :    0.125046
  39 H :    0.122785
  40 H :    0.132011

  Mayer bond orders larger than 0.100000
B(  0-C ,  1-C ) :   1.1636 B(  0-C , 19-H ) :   0.9294 B(  0-C , 20-H ) :   0.9382
B(  0-C , 21-H ) :   0.9450 B(  1-C ,  2-O ) :   0.9049 B(  1-C , 22-H ) :   0.9108
B(  1-C , 23-H ) :   0.9327 B(  2-O ,  3-P ) :   1.0667 B(  3-P ,  4-S ) :   1.6911
B(  3-P ,  5-O ) :   1.0864 B(  3-P ,  8-S ) :   0.9387 B(  4-S ,  8-S ) :   0.1116
B(  5-O ,  6-C ) :   0.8847 B(  6-C ,  7-C ) :   1.1702 B(  6-C , 24-H ) :   0.9284
B(  6-C , 25-H ) :   0.9246 B(  7-C , 26-H ) :   0.9352 B(  7-C , 27-H ) :   0.9361
B(  7-C , 28-H ) :   0.9345 B(  8-S ,  9-C ) :   0.9940 B(  9-C , 10-S ) :   1.0130
B(  9-C , 29-H ) :   0.8593 B(  9-C , 30-H ) :   0.9139 B( 10-S , 11-P ) :   0.9355
B( 10-S , 12-S ) :   0.1121 B( 11-P , 12-S ) :   1.6667 B( 11-P , 13-O ) :   1.0864
B( 11-P , 16-O ) :   1.0439 B( 13-O , 14-C ) :   0.8806 B( 14-C , 15-C ) :   1.1570
B( 14-C , 31-H ) :   0.9311 B( 14-C , 32-H ) :   0.9176 B( 15-C , 33-H ) :   0.9451
B( 15-C , 34-H ) :   0.9383 B( 15-C , 35-H ) :   0.9399 B( 16-O , 17-C ) :   0.9179
B( 17-C , 18-C ) :   1.1634 B( 17-C , 36-H ) :   0.9321 B( 17-C , 37-H ) :   0.9105
B( 18-C , 38-H ) :   0.9288 B( 18-C , 39-H ) :   0.9421 B( 18-C , 40-H ) :   0.9379

Dispersion correction           -0.070331063
FINAL SINGLE POINT ENERGY     -2929.494686251255

DIPOLE MOMENT
-------------

Method             : SCF
Type of density    : Electron Density
Multiplicity       :   1
Irrep              :   0
Energy             : -2929.6137590218490914 Eh
Relativity type    :
Basis              : AO
                                X                 Y                 Z
Electronic contribution:     -1.734814507       1.155790708     -13.703410866
Nuclear contribution   :      1.867338918      -1.600336331      15.634622960
                        -----------------------------------------
Total Dipole Moment    :      0.132524411      -0.444545624       1.931212094
                        -----------------------------------------
Magnitude (a.u.)       :      1.986142916
Magnitude (Debye)      :      5.048374092

Rotational constants in cm-1:             0.011953             0.006170             0.005358
Rotational constants in MHz :           358.343914           184.962717           160.635274

                             ****ORCA TERMINATED NORMALLY****
TOTAL RUN TIME: 0 days 0 hours 0 minutes 22 seconds 15 msec
