                         Program Version 6.0.1  -  RELEASE   -
|  1> ! wb97x-v def2-tzvp def2/J RIJCOSX DEFGRID2 scfconv7 GCP(DFT/TZ) printgap
|  2> %output
|  3>     printlevel normal
|  4> end
|  5> * xyz 0 1
|  6> C 5.461448640770252 -3.3997834069197745 -2.137727213625836
|  7> C 4.869387982660872 -2.1492866152955927 -1.5426220285824825
|  8> O 3.4144077491844214 -2.3383672697060844 -1.501068618813871
|  9> C 2.7007976244687675 -1.331613148359628 -0.9896343610517782
| 10> O 3.1821706873636906 -0.2922227778126908 -0.5699759568633623
| 11> C 1.225832866057741 -1.644460825485317 -0.9949747530548758
| 12> C 0.43828361578227715 -0.48732502717549553 -0.3985553495467181
| 13> H 0.5250741509784103 0.41226574600036453 -1.0134789796495198
| 14> C 0.8566543753034421 -0.19855027180871943 1.0311833275002191
| 15> O 1.2051853256655178 -1.0537461767842604 1.8258054591567097
| 16> O 0.7459796531532734 1.0996343131202657 1.3111790773104517
| 17> C 1.0010733360332997 1.4956545311117435 2.7001681367960804
| 18> C 0.6973052426222525 2.967534706952458 2.800970438927147
| 19> S -1.35268431483238 -0.9826275932985238 -0.3573377721472368
| 20> P -2.3323642571963954 0.9066482491309533 -0.27325095740988814
| 21> S -1.6958387880755086 2.2734323362561484 -1.492800885692848
| 22> O -3.852047258754225 0.3941025573737034 -0.4247996916756203
| 23> C -4.406956493813902 0.09961859940166821 -1.7396873270176398
| 24> O -2.3214563808732716 1.4236429651706202 1.244340199388007
| 25> C -2.624143165424351 0.5426365516443531 2.366787765789552
| 26> H 5.2302026425935 -4.275416774659563 -1.5246673631088656
| 27> H 5.09137050372796 -3.566498136007183 -3.1532882827963054
| 28> H 6.548878540801053 -3.2892966970965 -2.1823359120721446
| 29> H 5.0794048301542025 -1.2640859666406559 -2.1497413334167974
| 30> H 5.217787615586988 -1.9738117974578635 -0.52076571843586
| 31> H 1.0697354395935945 -2.573162141597896 -0.435676622233481
| 32> H 0.9123401891855334 -1.8286869241305352 -2.0274446682504528
| 33> H 0.35625801905736737 0.8951686148927673 3.348353206225251
| 34> H 2.047309682497454 1.2716751241932116 2.9280641891364865
| 35> H 1.3361608838182664 3.548389135959338 2.129844401480785
| 36> H -0.3505851153981756 3.169035696691692 2.5604309457649177
| 37> H 0.8851074615517753 3.298264652830717 3.8266610896637716
| 38> H -5.408060523320017 -0.287940355383314 -1.5520469525990066
| 39> H -3.804437670678571 -0.6544324672017499 -2.2530768021955763
| 40> H -4.458969755051493 1.0156038044781002 -2.332579292917734
| 41> H -2.621310917664225 1.1858552659660362 3.246671606303523
| 42> H -1.8519298891927551 -0.225449220078255 2.459424541545456
| 43> H -3.6073619629040787 0.08368571549017788 2.2384996900588185
| 44> *
| 45>
| 46>                          ****END OF INPUT****

CARTESIAN COORDINATES (ANGSTROEM)
---------------------------------
  C      5.461449   -3.399783   -2.137727
  C      4.869388   -2.149287   -1.542622
  O      3.414408   -2.338367   -1.501069
  C      2.700798   -1.331613   -0.989634
  O      3.182171   -0.292223   -0.569976
  C      1.225833   -1.644461   -0.994975
  C      0.438284   -0.487325   -0.398555
  H      0.525074    0.412266   -1.013479
  C      0.856654   -0.198550    1.031183
  O      1.205185   -1.053746    1.825805
  O      0.745980    1.099634    1.311179
  C      1.001073    1.495655    2.700168
  C      0.697305    2.967535    2.800970
  S     -1.352684   -0.982628   -0.357338
  P     -2.332364    0.906648   -0.273251
  S     -1.695839    2.273432   -1.492801
  O     -3.852047    0.394103   -0.424800
  C     -4.406956    0.099619   -1.739687
  O     -2.321456    1.423643    1.244340
  C     -2.624143    0.542637    2.366788
  H      5.230203   -4.275417   -1.524667
  H      5.091371   -3.566498   -3.153288
  H      6.548879   -3.289297   -2.182336
  H      5.079405   -1.264086   -2.149741
  H      5.217788   -1.973812   -0.520766
  H      1.069735   -2.573162   -0.435677
  H      0.912340   -1.828687   -2.027445
  H      0.356258    0.895169    3.348353
  H      2.047310    1.271675    2.928064
  H      1.336161    3.548389    2.129844
  H     -0.350585    3.169036    2.560431
  H      0.885107    3.298265    3.826661
  H     -5.408061   -0.287940   -1.552047
  H     -3.804438   -0.654432   -2.253077
  H     -4.458970    1.015604   -2.332579
  H     -2.621311    1.185855    3.246672
  H     -1.851930   -0.225449    2.459425
  H     -3.607362    0.083686    2.238500

 Total Charge           Charge          ....    0
 Multiplicity           Mult            ....    1
 Number of Electrons    NEL             ....  174
 Basis Dimension        Dim             ....  721

ORBITAL ENERGIES
----------------

  NO   OCC          E(Eh)            E(eV)
   0   2.0000     -88.883356     -2418.6391
   1   2.0000     -88.815941     -2416.8046
   2   2.0000     -77.214084     -2101.1020
   3   2.0000     -19.265342      -524.2366
   4   2.0000     -19.261099      -524.1212
   5   2.0000     -19.258707      -524.0561
   6   2.0000     -19.258056      -524.0384
   7   2.0000     -19.204859      -522.5908
   8   2.0000     -19.197901      -522.4015
   9   2.0000     -10.410043      -283.2717
  10   2.0000     -10.405746      -283.1547
  11   2.0000     -10.341179      -281.3978
  12   2.0000     -10.340466      -281.3784
  13   2.0000     -10.337587      -281.3000
  14   2.0000     -10.335347      -281.2391
  15   2.0000     -10.331145      -281.1247
  16   2.0000     -10.303222      -280.3649
  17   2.0000     -10.275682      -279.6155
  18   2.0000     -10.265282      -279.3325
  19   2.0000      -8.062025      -219.3788
  20   2.0000      -7.995909      -217.5797
  21   2.0000      -6.776533      -184.3988
  22   2.0000      -6.017525      -163.7452
  23   2.0000      -6.014604      -163.6657
  24   2.0000      -6.009081      -163.5154
  25   2.0000      -5.951806      -161.9569
  26   2.0000      -5.945622      -161.7886
  27   2.0000      -5.945256      -161.7786
  28   2.0000      -4.931409      -134.1905
  29   2.0000      -4.930910      -134.1769
  30   2.0000      -4.928725      -134.1174
  31   2.0000      -1.243704       -33.8429
  32   2.0000      -1.237429       -33.6722
  33   2.0000      -1.214901       -33.0591
  34   2.0000      -1.172882       -31.9157
  35   2.0000      -1.150561       -31.3084
  36   2.0000      -1.143739       -31.1227
  37   2.0000      -0.979397       -26.6508
  38   2.0000      -0.926575       -25.2134
  39   2.0000      -0.910456       -24.7748
  40   2.0000      -0.902165       -24.5492
  41   2.0000      -0.865800       -23.5596
  42   2.0000      -0.844205       -22.9720
  43   2.0000      -0.824282       -22.4299
  44   2.0000      -0.807899       -21.9841
  45   2.0000      -0.776070       -21.1179
  46   2.0000      -0.743233       -20.2244
  47   2.0000      -0.700260       -19.0550
  48   2.0000      -0.692058       -18.8319
  49   2.0000      -0.675910       -18.3925
  50   2.0000      -0.646612       -17.5952
  51   2.0000      -0.641532       -17.4570
  52   2.0000      -0.637209       -17.3393
  53   2.0000      -0.620816       -16.8933
  54   2.0000      -0.615639       -16.7524
  55   2.0000      -0.604799       -16.4574
  56   2.0000      -0.597684       -16.2638
  57   2.0000      -0.594881       -16.1875
  58   2.0000      -0.584459       -15.9039
  59   2.0000      -0.583433       -15.8760
  60   2.0000      -0.565828       -15.3970
  61   2.0000      -0.564111       -15.3502
  62   2.0000      -0.555531       -15.1168
  63   2.0000      -0.542619       -14.7654
  64   2.0000      -0.525928       -14.3112
  65   2.0000      -0.519033       -14.1236
  66   2.0000      -0.512417       -13.9436
  67   2.0000      -0.508637       -13.8407
  68   2.0000      -0.498608       -13.5678
  69   2.0000      -0.493506       -13.4290
  70   2.0000      -0.490560       -13.3488
  71   2.0000      -0.477182       -12.9848
  72   2.0000      -0.470170       -12.7940
  73   2.0000      -0.467769       -12.7286
  74   2.0000      -0.466769       -12.7014
  75   2.0000      -0.464793       -12.6477
  76   2.0000      -0.458167       -12.4674
  77   2.0000      -0.447380       -12.1738
  78   2.0000      -0.429746       -11.6940
  79   2.0000      -0.418257       -11.3814
  80   2.0000      -0.412243       -11.2177
  81   2.0000      -0.407540       -11.0897
  82   2.0000      -0.398316       -10.8387
  83   2.0000      -0.390120       -10.6157
  84   2.0000      -0.369967       -10.0673
  85   2.0000      -0.342254        -9.3132
  86   2.0000      -0.334681        -9.1071
  87   0.0000       0.054606         1.4859
  88   0.0000       0.083282         2.2662
  89   0.0000       0.092492         2.5168
  90   0.0000       0.104615         2.8467
  91   0.0000       0.110241         2.9998

MULLIKEN ATOMIC CHARGES
-----------------------
   0 C :   -0.310852
   1 C :   -0.052016
   2 O :   -0.233052
   3 C :    0.285102
   4 O :   -0.350470
   5 C :   -0.202931
   6 C :    0.033223
   7 H :    0.152066
   8 C :    0.253041
   9 O :   -0.354453
  10 O :   -0.207211
  11 C :   -0.048045
  12 C :   -0.324535
  13 S :   -0.185883
  14 P :    0.634889
  15 S :   -0.386558
  16 O :   -0.320757
  17 C :   -0.193380
  18 O :   -0.284519
  19 C :   -0.223841
  20 H :    0.119049
  21 H :    0.116354
  22 H :    0.115608
  23 H :    0.116142
  24 H :    0.119497
  25 H :    0.147899
  26 H :    0.149358
  27 H :    0.104795
  28 H :    0.124874
  29 H :    0.123064
  30 H :    0.132179
  31 H :    0.110485
  32 H :    0.132702
  33 H :    0.129218
  34 H :    0.147517
  35 H :    0.136534
  36 H :    0.148819
  37 H :    0.146088
Sum of atomic charges:   -0.0000000

LOEWDIN ATOMIC CHARGES
----------------------
   0 C :   -0.303504
   1 C :   -0.276685
   2 O :    0.251201
   3 C :   -0.462432
   4 O :    0.101335
   5 C :   -0.225894
   6 C :   -0.387678
   7 H :    0.155191
   8 C :   -0.505957
   9 O :    0.089387
  10 O :    0.271763
  11 C :   -0.277305
  12 C :   -0.302478
  13 S :    0.403321
  14 P :   -0.035950
  15 S :   -0.095598
  16 O :    0.007758
  17 C :   -0.322460
  18 O :    0.022846
  19 C :   -0.326061
  20 H :    0.122340
  21 H :    0.121573
  22 H :    0.126149
  23 H :    0.127455
  24 H :    0.128892
  25 H :    0.161101
  26 H :    0.156803
  27 H :    0.123110
  28 H :    0.129349
  29 H :    0.124824
  30 H :    0.123625
  31 H :    0.123642
  32 H :    0.111275
  33 H :    0.103810
  34 H :    0.109307
  35 H :    0.112089
  36 H :    0.105614
  37 H :    0.108243

  Mayer bond orders larger than 0.100000
B(  0-C ,  1-C ) :   1.0021 B(  0-C , 20-H ) :   0.9739 B(  0-C , 21-H ) :   0.9737
B(  0-C , 22-H ) :   0.9734 B(  1-C ,  2-O ) :   0.8726 B(  1-C , 23-H ) :   0.9735
B(  1-C , 24-H ) :   0.9718 B(  2-O ,  3-C ) :   1.2543 B(  3-C ,  4-O ) :   2.0078
B(  3-C ,  5-C ) :   1.0041 B(  5-C ,  6-C ) :   0.9881 B(  5-C , 25-H ) :   0.9219
B(  5-C , 26-H ) :   0.9576 B(  6-C ,  7-H ) :   0.9542 B(  6-C ,  8-C ) :   0.9276
B(  6-C , 13-S ) :   0.9122 B(  8-C ,  9-O ) :   2.0383 B(  8-C , 10-O ) :   1.2467
B( 10-O , 11-C ) :   0.8649 B( 11-C , 12-C ) :   0.9981 B( 11-C , 27-H ) :   0.9774
B( 11-C , 28-H ) :   0.9688 B( 12-C , 29-H ) :   0.9725 B( 12-C , 30-H ) :   0.9741
B( 12-C , 31-H ) :   0.9732 B( 13-S , 14-P ) :   1.0511 B( 14-P , 15-S ) :   1.8874
B( 14-P , 16-O ) :   1.1562 B( 14-P , 18-O ) :   1.2075 B( 16-O , 17-C ) :   0.8961
B( 17-C , 32-H ) :   0.9709 B( 17-C , 33-H ) :   0.9704 B( 17-C , 34-H ) :   0.9726
B( 18-O , 19-C ) :   0.8854 B( 19-C , 35-H ) :   0.9731 B( 19-C , 36-H ) :   0.9668
B( 19-C , 37-H ) :   0.9690

FINAL SINGLE POINT ENERGY     -1981.629038522701

DIPOLE MOMENT
-------------

Method             : SCF
Type of density    : Electron Density
Multiplicity       :   1
Irrep              :   0
Energy             : -1981.6567472497010840 Eh
Relativity type    :
Basis              : AO
                                X                 Y                 Z
Electronic contribution:    -13.747072647       4.692794691      -4.690241027
Nuclear contribution   :     13.493604886      -5.747819153       4.765826460
                        -----------------------------------------
Total Dipole Moment    :     -0.253467761      -1.055024463       0.075585433
                        -----------------------------------------
Magnitude (a.u.)       :      1.087674437
Magnitude (Debye)      :      2.764648708

Rotational constants in cm-1:             0.014396             0.005408             0.004605
Rotational constants in MHz :           431.574261           162.140123           138.068139

                             ****ORCA TERMINATED NORMALLY****
TOTAL RUN TIME: 0 days 0 hours 12 minutes 51 seconds 447 msec
