                         Program Version 6.0.1  -  RELEASE   -
|  1> ! wb97x-v def2-tzvp def2/J RIJCOSX DEFGRID2 scfconv7 GCP(DFT/TZ) printgap
|  2> %output
|  3>     printlevel normal
|  4> end
|  5> %cpcm
|  6>     smd true
|  7>     smdsolvent "water"
|  8> end
|  9> * xyz 0 1
| 10> C 5.461448640770252 -3.3997834069197745 -2.137727213625836
| 11> C 4.869387982660872 -2.1492866152955927 -1.5426220285824825
| 12> O 3.4144077491844214 -2.3383672697060844 -1.501068618813871
| 13> C 2.7007976244687675 -1.331613148359628 -0.9896343610517782
| 14> O 3.1821706873636906 -0.2922227778126908 -0.5699759568633623
| 15> C 1.225832866057741 -1.644460825485317 -0.9949747530548758
| 16> C 0.43828361578227715 -0.48732502717549553 -0.3985553495467181
| 17> H 0.5250741509784103 0.41226574600036453 -1.0134789796495198
| 18> C 0.8566543753034421 -0.19855027180871943 1.0311833275002191
| 19> O 1.2051853256655178 -1.0537461767842604 1.8258054591567097
| 20> O 0.7459796531532734 1.0996343131202657 1.3111790773104517
| 21> C 1.0010733360332997 1.4956545311117435 2.7001681367960804
| 22> C 0.6973052426222525 2.967534706952458 2.800970438927147
| 23> S -1.35268431483238 -0.9826275932985238 -0.3573377721472368
| 24> P -2.3323642571963954 0.9066482491309533 -0.27325095740988814
| 25> S -1.6958387880755086 2.2734323362561484 -1.492800885692848
| 26> O -3.852047258754225 0.3941025573737034 -0.4247996916756203
| 27> C -4.406956493813902 0.09961859940166821 -1.7396873270176398
| 28> O -2.3214563808732716 1.4236429651706202 1.244340199388007
| 29> C -2.624143165424351 0.5426365516443531 2.366787765789552
| 30> H 5.2302026425935 -4.275416774659563 -1.5246673631088656
| 31> H 5.09137050372796 -3.566498136007183 -3.1532882827963054
| 32> H 6.548878540801053 -3.2892966970965 -2.1823359120721446
| 33> H 5.0794048301542025 -1.2640859666406559 -2.1497413334167974
| 34> H 5.217787615586988 -1.9738117974578635 -0.52076571843586
| 35> H 1.0697354395935945 -2.573162141597896 -0.435676622233481
| 36> H 0.9123401891855334 -1.8286869241305352 -2.0274446682504528
| 37> H 0.35625801905736737 0.8951686148927673 3.348353206225251
| 38> H 2.047309682497454 1.2716751241932116 2.9280641891364865
| 39> H 1.3361608838182664 3.548389135959338 2.129844401480785
| 40> H -0.3505851153981756 3.169035696691692 2.5604309457649177
| 41> H 0.8851074615517753 3.298264652830717 3.8266610896637716
| 42> H -5.408060523320017 -0.287940355383314 -1.5520469525990066
| 43> H -3.804437670678571 -0.6544324672017499 -2.2530768021955763
| 44> H -4.458969755051493 1.0156038044781002 -2.332579292917734
| 45> H -2.621310917664225 1.1858552659660362 3.246671606303523
| 46> H -1.8519298891927551 -0.225449220078255 2.459424541545456
| 47> H -3.6073619629040787 0.08368571549017788 2.2384996900588185
| 48> *
| 49>
| 50>                          ****END OF INPUT****

CARTESIAN COORDINATES (ANGSTROEM)
---------------------------------
  C      5.461449   -3.399783   -2.137727
  C      4.869388   -2.149287   -1.542622
  O      3.414408   -2.338367   -1.501069
  C      2.700798   -1.331613   -0.989634
  O      3.182171   -0.292223   -0.569976
  C      1.225833   -1.644461   -0.994975
  C      0.438284   -0.487325   -0.398555
  H      0.525074    0.412266   -1.013479
  C      0.856654   -0.198550    1.031183
  O      1.205185   -1.053746    1.825805
  O      0.745980    1.099634    1.311179
  C      1.001073    1.495655    2.700168
  C      0.697305    2.967535    2.800970
  S     -1.352684   -0.982628   -0.357338
  P     -2.332364    0.906648   -0.273251
  S     -1.695839    2.273432   -1.492801
  O     -3.852047    0.394103   -0.424800
  C     -4.406956    0.099619   -1.739687
  O     -2.321456    1.423643    1.244340
  C     -2.624143    0.542637    2.366788
  H      5.230203   -4.275417   -1.524667
  H      5.091371   -3.566498   -3.153288
  H      6.548879   -3.289297   -2.182336
  H      5.079405   -1.264086   -2.149741
  H      5.217788   -1.973812   -0.520766
  H      1.069735   -2.573162   -0.435677
  H      0.912340   -1.828687   -2.027445
  H      0.356258    0.895169    3.348353
  H      2.047310    1.271675    2.928064
  H      1.336161    3.548389    2.129844
  H     -0.350585    3.169036    2.560431
  H      0.885107    3.298265    3.826661
  H     -5.408061   -0.287940   -1.552047
  H     -3.804438   -0.654432   -2.253077
  H     -4.458970    1.015604   -2.332579
  H     -2.621311    1.185855    3.246672
  H     -1.851930   -0.225449    2.459425
  H     -3.607362    0.083686    2.238500

 Total Charge           Charge          ....    0
 Multiplicity           Mult            ....    1
 Number of Electrons    NEL             ....  174
 Basis Dimension        Dim             ....  721

ORBITAL ENERGIES
----------------

  NO   OCC          E(Eh)            E(eV)
   0   2.0000     -88.888238     -2418.7719
   1   2.0000     -88.828758     -2417.1534
   2   2.0000     -77.221120     -2101.2935
   3   2.0000     -19.270897      -524.3878
   4   2.0000     -19.268010      -524.3092
   5   2.0000     -19.261581      -524.1343
   6   2.0000     -19.261042      -524.1196
   7   2.0000     -19.216983      -522.9207
   8   2.0000     -19.216776      -522.9151
   9   2.0000     -10.421886      -283.5939
  10   2.0000     -10.419338      -283.5246
  11   2.0000     -10.339456      -281.3509
  12   2.0000     -10.327119      -281.0152
  13   2.0000     -10.326622      -281.0017
  14   2.0000     -10.326521      -280.9989
  15   2.0000     -10.325579      -280.9733
  16   2.0000     -10.299049      -280.2514
  17   2.0000     -10.259475      -279.1745
  18   2.0000     -10.259354      -279.1712
  19   2.0000      -8.066746      -219.5073
  20   2.0000      -8.009156      -217.9402
  21   2.0000      -6.783631      -184.5920
  22   2.0000      -6.022310      -163.8754
  23   2.0000      -6.019369      -163.7953
  24   2.0000      -6.013702      -163.6411
  25   2.0000      -5.964937      -162.3142
  26   2.0000      -5.958877      -162.1493
  27   2.0000      -5.958572      -162.1410
  28   2.0000      -4.938446      -134.3819
  29   2.0000      -4.937936      -134.3681
  30   2.0000      -4.936010      -134.3157
  31   2.0000      -1.252283       -34.0764
  32   2.0000      -1.247502       -33.9462
  33   2.0000      -1.216253       -33.0959
  34   2.0000      -1.173394       -31.9297
  35   2.0000      -1.162618       -31.6365
  36   2.0000      -1.158890       -31.5350
  37   2.0000      -0.982621       -26.7385
  38   2.0000      -0.921123       -25.0650
  39   2.0000      -0.909874       -24.7589
  40   2.0000      -0.899662       -24.4810
  41   2.0000      -0.863527       -23.4978
  42   2.0000      -0.836038       -22.7498
  43   2.0000      -0.823314       -22.4035
  44   2.0000      -0.811118       -22.0717
  45   2.0000      -0.770405       -20.9638
  46   2.0000      -0.739344       -20.1186
  47   2.0000      -0.700247       -19.0547
  48   2.0000      -0.690093       -18.7784
  49   2.0000      -0.679916       -18.5015
  50   2.0000      -0.651568       -17.7301
  51   2.0000      -0.642518       -17.4838
  52   2.0000      -0.635414       -17.2905
  53   2.0000      -0.621946       -16.9240
  54   2.0000      -0.615926       -16.7602
  55   2.0000      -0.613431       -16.6923
  56   2.0000      -0.600150       -16.3309
  57   2.0000      -0.594295       -16.1716
  58   2.0000      -0.593855       -16.1596
  59   2.0000      -0.575905       -15.6712
  60   2.0000      -0.562042       -15.2939
  61   2.0000      -0.555904       -15.1269
  62   2.0000      -0.552592       -15.0368
  63   2.0000      -0.544652       -14.8207
  64   2.0000      -0.528373       -14.3778
  65   2.0000      -0.515474       -14.0268
  66   2.0000      -0.510740       -13.8979
  67   2.0000      -0.500154       -13.6099
  68   2.0000      -0.494476       -13.4554
  69   2.0000      -0.489741       -13.3265
  70   2.0000      -0.486303       -13.2330
  71   2.0000      -0.474031       -12.8990
  72   2.0000      -0.469169       -12.7668
  73   2.0000      -0.466650       -12.6982
  74   2.0000      -0.463741       -12.6190
  75   2.0000      -0.463546       -12.6137
  76   2.0000      -0.462302       -12.5799
  77   2.0000      -0.450385       -12.2556
  78   2.0000      -0.429526       -11.6880
  79   2.0000      -0.421148       -11.4600
  80   2.0000      -0.417984       -11.3739
  81   2.0000      -0.414961       -11.2917
  82   2.0000      -0.414165       -11.2700
  83   2.0000      -0.402175       -10.9437
  84   2.0000      -0.379320       -10.3218
  85   2.0000      -0.356509        -9.7011
  86   2.0000      -0.348101        -9.4723
  87   0.0000       0.047344         1.2883
  88   0.0000       0.074825         2.0361
  89   0.0000       0.086534         2.3547
  90   0.0000       0.103662         2.8208
  91   0.0000       0.113125         3.0783

MULLIKEN ATOMIC CHARGES
-----------------------
   0 C :   -0.367906
   1 C :   -0.056085
   2 O :   -0.253582
   3 C :    0.356358
   4 O :   -0.452277
   5 C :   -0.214554
   6 C :    0.026969
   7 H :    0.161197
   8 C :    0.311412
   9 O :   -0.448404
  10 O :   -0.240423
  11 C :   -0.055181
  12 C :   -0.379925
  13 S :   -0.172287
  14 P :    0.648176
  15 S :   -0.445486
  16 O :   -0.336616
  17 C :   -0.211951
  18 O :   -0.325089
  19 C :   -0.225829
  20 H :    0.132713
  21 H :    0.132464
  22 H :    0.138634
  23 H :    0.135949
  24 H :    0.136081
  25 H :    0.175788
  26 H :    0.183827
  27 H :    0.140937
  28 H :    0.144254
  29 H :    0.134015
  30 H :    0.133644
  31 H :    0.140704
  32 H :    0.163065
  33 H :    0.150178
  34 H :    0.153771
  35 H :    0.164253
  36 H :    0.154759
  37 H :    0.166446
Sum of atomic charges:   -0.0000000

LOEWDIN ATOMIC CHARGES
----------------------
   0 C :   -0.305544
   1 C :   -0.273384
   2 O :    0.249587
   3 C :   -0.444929
   4 O :    0.047995
   5 C :   -0.216700
   6 C :   -0.388408
   7 H :    0.157268
   8 C :   -0.496588
   9 O :    0.043561
  10 O :    0.261943
  11 C :   -0.272713
  12 C :   -0.305657
  13 S :    0.415401
  14 P :   -0.033319
  15 S :   -0.140136
  16 O :    0.002842
  17 C :   -0.315934
  18 O :    0.005798
  19 C :   -0.314653
  20 H :    0.124583
  21 H :    0.124548
  22 H :    0.133084
  23 H :    0.132519
  24 H :    0.132641
  25 H :    0.168618
  26 H :    0.170920
  27 H :    0.133292
  28 H :    0.133606
  29 H :    0.125030
  30 H :    0.122128
  31 H :    0.133383
  32 H :    0.121464
  33 H :    0.110181
  34 H :    0.111382
  35 H :    0.121929
  36 H :    0.109837
  37 H :    0.114424

  Mayer bond orders larger than 0.100000
B(  0-C ,  1-C ) :   1.0114 B(  0-C , 20-H ) :   0.9714 B(  0-C , 21-H ) :   0.9712
B(  0-C , 22-H ) :   0.9690 B(  1-C ,  2-O ) :   0.8479 B(  1-C , 23-H ) :   0.9660
B(  1-C , 24-H ) :   0.9651 B(  2-O ,  3-C ) :   1.2749 B(  3-C ,  4-O ) :   1.9008
B(  3-C ,  5-C ) :   1.0146 B(  5-C ,  6-C ) :   0.9971 B(  5-C , 25-H ) :   0.9244
B(  5-C , 26-H ) :   0.9354 B(  6-C ,  7-H ) :   0.9509 B(  6-C ,  8-C ) :   0.9274
B(  6-C , 13-S ) :   0.9173 B(  8-C ,  9-O ) :   1.9376 B(  8-C , 10-O ) :   1.2677
B( 10-O , 11-C ) :   0.8345 B( 11-C , 12-C ) :   1.0064 B( 11-C , 27-H ) :   0.9692
B( 11-C , 28-H ) :   0.9601 B( 12-C , 29-H ) :   0.9701 B( 12-C , 30-H ) :   0.9727
B( 12-C , 31-H ) :   0.9699 B( 13-S , 14-P ) :   1.0649 B( 14-P , 15-S ) :   1.8485
B( 14-P , 16-O ) :   1.1739 B( 14-P , 18-O ) :   1.2150 B( 16-O , 17-C ) :   0.8666
B( 17-C , 32-H ) :   0.9651 B( 17-C , 33-H ) :   0.9661 B( 17-C , 34-H ) :   0.9702
B( 18-O , 19-C ) :   0.8509 B( 19-C , 35-H ) :   0.9661 B( 19-C , 36-H ) :   0.9665
B( 19-C , 37-H ) :   0.9641

FINAL SINGLE POINT ENERGY     -1981.648606352753

DIPOLE MOMENT
-------------

Method             : SCF
Type of density    : Electron Density
Multiplicity       :   1
Irrep              :   0
Energy             : -1981.6763150797530670 Eh
Relativity type    :
Basis              : AO
                                X                 Y                 Z
Electronic contribution:    -14.036266273       4.152801665      -4.700575364
Nuclear contribution   :     13.493604886      -5.747819153       4.765826460
                        -----------------------------------------
Total Dipole Moment    :     -0.542661386      -1.595017488       0.065251097
                        -----------------------------------------
Magnitude (a.u.)       :      1.686066391
Magnitude (Debye)      :      4.285640180

Rotational constants in cm-1:             0.014396             0.005408             0.004605
Rotational constants in MHz :           431.574261           162.140123           138.068139

                             ****ORCA TERMINATED NORMALLY****
TOTAL RUN TIME: 0 days 0 hours 14 minutes 48 seconds 101 msec
