                         Program Version 6.0.0  -   RELEASE  -
|  1> ! pbe def2-sv(p) def2/J RI DEFGRID1 loosescf d4 GCP(DFT/SV(P)) printgap
|  2> %output
|  3>     printlevel normal
|  4> end
|  5> * xyz 0 1
|  6> C 4.3527826976 -0.2713230416 -2.2258909364
|  7> C 4.4277921783 0.8158889966 -1.1735304538
|  8> O 3.6863683956 0.4849580412 0.0135861487
|  9> P 2.1044863304 0.3167941263 0.0347118117
| 10> S 1.0979576353 1.6214690224 -1.0272567298
| 11> O 1.7961799199 0.4518406115 1.5760317361
| 12> C 2.4564241314 -0.3663589441 2.5835847739
| 13> C 1.4247242117 -1.185388344 3.3314312565
| 14> S 1.8262916962 -1.7364990751 -0.4393081259
| 15> C 0.0628778368 -1.6765696881 -0.8262459459
| 16> S -0.9427176622 -1.1145901888 0.5846868486
| 17> P -2.1610547634 0.3580664648 -0.3464670444
| 18> S -2.0939734063 0.4581615331 -2.2998800363
| 19> O -1.8503997372 1.7343747188 0.3551383729
| 20> C -1.4198274773 1.9388537926 1.7202385731
| 21> C -2.3356351375 1.2827042448 2.730407817
| 22> O -3.6197942167 0.0524901698 0.2204573902
| 23> C -4.5345490081 -0.8477506738 -0.4243495774
| 24> C -4.0413883035 -2.2808329438 -0.4186456022
| 25> H 3.3416603516 -0.3339282923 -2.626020048
| 26> H 5.0338067425 -0.0314182023 -3.0361984573
| 27> H 4.6232201448 -1.2336209462 -1.7984927992
| 28> H 4.041052421 1.7604835047 -1.568254598
| 29> H 5.4467720505 0.9550988329 -0.8094294572
| 30> H 3.1948183355 -1.0050355196 2.0941819792
| 31> H 2.9630299797 0.3409604947 3.2415515868
| 32> H 0.6760564294 -0.5337080455 3.7724132176
| 33> H 0.9268129694 -1.8793058597 2.6582681419
| 34> H 1.9223634038 -1.7442672761 4.1172663803
| 35> H -0.2199880936 -2.6962761299 -1.0758633117
| 36> H -0.1194132007 -0.9994611626 -1.6657850965
| 37> H -0.3939043012 1.5686164712 1.8116526862
| 38> H -1.4190312096 3.0258957465 1.8169772489
| 39> H -3.3582481645 1.6195460211 2.5815884025
| 40> H -2.3021776519 0.1994649523 2.6232568975
| 41> H -2.0085323255 1.5513879792 3.7302180381
| 42> H -5.4551957518 -0.7357129815 0.1500545869
| 43> H -4.6917657628 -0.5019073361 -1.4509713344
| 44> H -3.1710238206 -2.3730086865 -1.0669099416
| 45> H -3.7705753123 -2.5862838622 0.5887133526
| 46> H -4.8265414594 -2.9290520928 -0.7942304406
| 47> *
| 48>
| 49>                          ****END OF INPUT****

CARTESIAN COORDINATES (ANGSTROEM)
---------------------------------
  C      4.352783   -0.271323   -2.225891
  C      4.427792    0.815889   -1.173530
  O      3.686368    0.484958    0.013586
  P      2.104486    0.316794    0.034712
  S      1.097958    1.621469   -1.027257
  O      1.796180    0.451841    1.576032
  C      2.456424   -0.366359    2.583585
  C      1.424724   -1.185388    3.331431
  S      1.826292   -1.736499   -0.439308
  C      0.062878   -1.676570   -0.826246
  S     -0.942718   -1.114590    0.584687
  P     -2.161055    0.358066   -0.346467
  S     -2.093973    0.458162   -2.299880
  O     -1.850400    1.734375    0.355138
  C     -1.419827    1.938854    1.720239
  C     -2.335635    1.282704    2.730408
  O     -3.619794    0.052490    0.220457
  C     -4.534549   -0.847751   -0.424350
  C     -4.041388   -2.280833   -0.418646
  H      3.341660   -0.333928   -2.626020
  H      5.033807   -0.031418   -3.036198
  H      4.623220   -1.233621   -1.798493
  H      4.041052    1.760484   -1.568255
  H      5.446772    0.955099   -0.809429
  H      3.194818   -1.005036    2.094182
  H      2.963030    0.340960    3.241552
  H      0.676056   -0.533708    3.772413
  H      0.926813   -1.879306    2.658268
  H      1.922363   -1.744267    4.117266
  H     -0.219988   -2.696276   -1.075863
  H     -0.119413   -0.999461   -1.665785
  H     -0.393904    1.568616    1.811653
  H     -1.419031    3.025896    1.816977
  H     -3.358248    1.619546    2.581588
  H     -2.302178    0.199465    2.623257
  H     -2.008532    1.551388    3.730218
  H     -5.455196   -0.735713    0.150055
  H     -4.691766   -0.501907   -1.450971
  H     -3.171024   -2.373009   -1.066910
  H     -3.770575   -2.586284    0.588713
  H     -4.826541   -2.929052   -0.794230

 Total Charge           Charge          ....    0
 Multiplicity           Mult            ....    1
 Number of Electrons    NEL             ....  202
 Basis Dimension        Dim             ....  334

ORBITAL ENERGIES
----------------

  NO   OCC          E(Eh)            E(eV)
   0   2.0000     -88.046755     -2395.8740
   1   2.0000     -88.041973     -2395.7439
   2   2.0000     -87.983303     -2394.1474
   3   2.0000     -87.977737     -2393.9959
   4   2.0000     -76.426144     -2079.6611
   5   2.0000     -76.420277     -2079.5015
   6   2.0000     -18.793405      -511.3946
   7   2.0000     -18.792742      -511.3765
   8   2.0000     -18.782279      -511.0918
   9   2.0000     -18.780967      -511.0561
  10   2.0000      -9.959799      -271.0199
  11   2.0000      -9.954806      -270.8841
  12   2.0000      -9.954378      -270.8724
  13   2.0000      -9.946328      -270.6534
  14   2.0000      -9.944558      -270.6052
  15   2.0000      -9.889747      -269.1137
  16   2.0000      -9.884886      -268.9814
  17   2.0000      -9.883749      -268.9505
  18   2.0000      -9.880917      -268.8734
  19   2.0000      -7.691674      -209.3011
  20   2.0000      -7.685999      -209.1467
  21   2.0000      -7.627961      -207.5674
  22   2.0000      -7.622928      -207.4304
  23   2.0000      -6.423411      -174.7899
  24   2.0000      -6.417286      -174.6232
  25   2.0000      -5.719535      -155.6365
  26   2.0000      -5.716030      -155.5411
  27   2.0000      -5.713883      -155.4827
  28   2.0000      -5.710497      -155.3905
  29   2.0000      -5.708848      -155.3456
  30   2.0000      -5.703069      -155.1884
  31   2.0000      -5.657083      -153.9371
  32   2.0000      -5.651959      -153.7976
  33   2.0000      -5.648392      -153.7006
  34   2.0000      -5.648169      -153.6945
  35   2.0000      -5.643619      -153.5707
  36   2.0000      -5.642853      -153.5498
  37   2.0000      -4.646237      -126.4305
  38   2.0000      -4.645204      -126.4024
  39   2.0000      -4.643631      -126.3596
  40   2.0000      -4.639903      -126.2582
  41   2.0000      -4.639084      -126.2359
  42   2.0000      -4.637783      -126.2005
  43   2.0000      -0.989322       -26.9208
  44   2.0000      -0.977421       -26.5970
  45   2.0000      -0.945580       -25.7305
  46   2.0000      -0.934980       -25.4421
  47   2.0000      -0.762631       -20.7522
  48   2.0000      -0.718997       -19.5649
  49   2.0000      -0.708476       -19.2786
  50   2.0000      -0.691008       -18.8033
  51   2.0000      -0.684098       -18.6152
  52   2.0000      -0.678215       -18.4552
  53   2.0000      -0.649523       -17.6744
  54   2.0000      -0.632145       -17.2015
  55   2.0000      -0.597868       -16.2688
  56   2.0000      -0.588923       -16.0254
  57   2.0000      -0.577307       -15.7093
  58   2.0000      -0.568975       -15.4826
  59   2.0000      -0.561683       -15.2842
  60   2.0000      -0.506346       -13.7784
  61   2.0000      -0.486235       -13.2311
  62   2.0000      -0.473696       -12.8899
  63   2.0000      -0.462558       -12.5868
  64   2.0000      -0.450501       -12.2587
  65   2.0000      -0.447666       -12.1816
  66   2.0000      -0.442594       -12.0436
  67   2.0000      -0.435177       -11.8418
  68   2.0000      -0.433405       -11.7936
  69   2.0000      -0.422237       -11.4896
  70   2.0000      -0.412846       -11.2341
  71   2.0000      -0.394764       -10.7421
  72   2.0000      -0.391464       -10.6523
  73   2.0000      -0.384539       -10.4638
  74   2.0000      -0.379144       -10.3170
  75   2.0000      -0.367384        -9.9970
  76   2.0000      -0.363531        -9.8922
  77   2.0000      -0.361572        -9.8389
  78   2.0000      -0.354152        -9.6370
  79   2.0000      -0.351272        -9.5586
  80   2.0000      -0.348649        -9.4872
  81   2.0000      -0.346217        -9.4210
  82   2.0000      -0.341322        -9.2878
  83   2.0000      -0.339464        -9.2373
  84   2.0000      -0.332700        -9.0532
  85   2.0000      -0.316783        -8.6201
  86   2.0000      -0.307520        -8.3680
  87   2.0000      -0.300798        -8.1851
  88   2.0000      -0.293991        -7.9999
  89   2.0000      -0.287916        -7.8346
  90   2.0000      -0.283195        -7.7061
  91   2.0000      -0.274388        -7.4665
  92   2.0000      -0.264257        -7.1908
  93   2.0000      -0.262462        -7.1420
  94   2.0000      -0.255333        -6.9480
  95   2.0000      -0.234260        -6.3746
  96   2.0000      -0.217641        -5.9223
  97   2.0000      -0.209665        -5.7053
  98   2.0000      -0.200130        -5.4458
  99   2.0000      -0.195337        -5.3154
 100   2.0000      -0.183215        -4.9855
 101   0.0000      -0.044349        -1.2068
 102   0.0000      -0.035129        -0.9559
 103   0.0000      -0.010141        -0.2759
 104   0.0000       0.006081         0.1655
 105   0.0000       0.018013         0.4902

MULLIKEN ATOMIC CHARGES
-----------------------
   0 C :   -0.321879
   1 C :    0.003016
   2 O :   -0.380038
   3 P :    0.582289
   4 S :   -0.278047
   5 O :   -0.354189
   6 C :   -0.011802
   7 C :   -0.286004
   8 S :   -0.112228
   9 C :   -0.331575
  10 S :   -0.140592
  11 P :    0.612755
  12 S :   -0.299040
  13 O :   -0.351928
  14 C :   -0.025278
  15 C :   -0.316416
  16 O :   -0.375803
  17 C :    0.003060
  18 C :   -0.313282
  19 H :    0.133693
  20 H :    0.115098
  21 H :    0.116160
  22 H :    0.113499
  23 H :    0.104308
  24 H :    0.106204
  25 H :    0.111932
  26 H :    0.118413
  27 H :    0.123719
  28 H :    0.109646
  29 H :    0.179682
  30 H :    0.206735
  31 H :    0.139065
  32 H :    0.107701
  33 H :    0.122496
  34 H :    0.122319
  35 H :    0.111218
  36 H :    0.101328
  37 H :    0.111143
  38 H :    0.116999
  39 H :    0.115224
  40 H :    0.110399
Sum of atomic charges:    0.0000000

LOEWDIN ATOMIC CHARGES
----------------------
   0 C :   -0.371601
   1 C :   -0.115472
   2 O :   -0.251067
   3 P :    0.559938
   4 S :   -0.283584
   5 O :   -0.236850
   6 C :   -0.111892
   7 C :   -0.357601
   8 S :    0.072492
   9 C :   -0.478777
  10 S :    0.073021
  11 P :    0.575758
  12 S :   -0.298264
  13 O :   -0.226545
  14 C :   -0.119846
  15 C :   -0.367869
  16 O :   -0.248484
  17 C :   -0.118516
  18 C :   -0.371068
  19 H :    0.123733
  20 H :    0.132108
  21 H :    0.122210
  22 H :    0.113962
  23 H :    0.118451
  24 H :    0.107742
  25 H :    0.120979
  26 H :    0.126570
  27 H :    0.117573
  28 H :    0.129393
  29 H :    0.134062
  30 H :    0.125457
  31 H :    0.111634
  32 H :    0.123097
  33 H :    0.128804
  34 H :    0.113835
  35 H :    0.129563
  36 H :    0.117026
  37 H :    0.111169
  38 H :    0.117754
  39 H :    0.121893
  40 H :    0.129213

  Mayer bond orders larger than 0.100000
B(  0-C ,  1-C ) :   1.1663 B(  0-C , 19-H ) :   0.9348 B(  0-C , 20-H ) :   0.9369
B(  0-C , 21-H ) :   0.9434 B(  1-C ,  2-O ) :   0.9058 B(  1-C , 22-H ) :   0.9185
B(  1-C , 23-H ) :   0.9347 B(  2-O ,  3-P ) :   1.0878 B(  3-P ,  4-S ) :   1.6638
B(  3-P ,  5-O ) :   1.1090 B(  3-P ,  8-S ) :   0.9351 B(  4-S ,  8-S ) :   0.1083
B(  5-O ,  6-C ) :   0.8849 B(  6-C ,  7-C ) :   1.1654 B(  6-C , 24-H ) :   0.9157
B(  6-C , 25-H ) :   0.9343 B(  7-C , 26-H ) :   0.9465 B(  7-C , 27-H ) :   0.9351
B(  7-C , 28-H ) :   0.9390 B(  8-S ,  9-C ) :   1.0029 B(  9-C , 10-S ) :   0.9979
B(  9-C , 29-H ) :   0.9078 B(  9-C , 30-H ) :   0.8460 B( 10-S , 11-P ) :   0.9337
B( 10-S , 12-S ) :   0.1117 B( 11-P , 12-S ) :   1.6158 B( 11-P , 13-O ) :   1.1531
B( 11-P , 16-O ) :   1.0802 B( 12-S , 30-H ) :   0.1019 B( 13-O , 14-C ) :   0.8962
B( 14-C , 15-C ) :   1.1653 B( 14-C , 31-H ) :   0.9052 B( 14-C , 32-H ) :   0.9331
B( 15-C , 33-H ) :   0.9410 B( 15-C , 34-H ) :   0.9362 B( 15-C , 35-H ) :   0.9357
B( 16-O , 17-C ) :   0.9181 B( 17-C , 18-C ) :   1.1643 B( 17-C , 36-H ) :   0.9344
B( 17-C , 37-H ) :   0.9160 B( 18-C , 38-H ) :   0.9367 B( 18-C , 39-H ) :   0.9429
B( 18-C , 40-H ) :   0.9377

Dispersion correction           -0.068945056
FINAL SINGLE POINT ENERGY     -2929.516152458541

DIPOLE MOMENT
-------------

Method             : SCF
Type of density    : Electron Density
Multiplicity       :   1
Irrep              :   0
Energy             : -2929.6336992412329892 Eh
Relativity type    :
Basis              : AO
                                X                 Y                 Z
Electronic contribution:      0.276843740       7.508107706     -11.423262241
Nuclear contribution   :      0.460394212      -8.572510133      12.874769049
                        -----------------------------------------
Total Dipole Moment    :      0.737237951      -1.064402426       1.451506808
                        -----------------------------------------
Magnitude (a.u.)       :      1.945082089
Magnitude (Debye)      :      4.944005765

Rotational constants in cm-1:             0.012404             0.005577             0.005126
Rotational constants in MHz :           371.862816           167.197924           153.667184

                             ****ORCA TERMINATED NORMALLY****
TOTAL RUN TIME: 0 days 0 hours 0 minutes 24 seconds 425 msec
