                         Program Version 6.0.0  -   RELEASE  -
|  1> ! pbe def2-sv(p) def2/J RI DEFGRID1 loosescf d4 GCP(DFT/SV(P)) printgap
|  2> %output
|  3>     printlevel normal
|  4> end
|  5> * xyz 0 1
|  6> C -1.4802962446 -0.0017362939 -0.2438772632
|  7> C -0.7323122379 -1.2446478718 0.2359156597
|  8> C 0.723307052 -1.1712822253 -0.2248306365
|  9> O 1.3673174577 0.0015957419 0.239603304
| 10> C 0.7203829605 1.1729218151 -0.2248374151
| 11> C -0.7353747751 1.2429509494 0.23594581
| 12> H -2.5019276727 -0.002870488 0.1375346655
| 13> H -1.5232315478 -0.0018179561 -1.335741829
| 14> H -0.7551991176 -1.286908572 1.3262847846
| 15> H -1.1897958128 -2.1514990788 -0.1588597855
| 16> H 1.3091161616 -2.000386125 0.1756851504
| 17> H 0.7672272675 -1.1982561831 -1.3248960891
| 18> H 1.3042276434 2.0035325547 0.1756520557
| 19> H 0.7643724213 1.2004994172 -1.324809923
| 20> H -0.7583610227 1.2850806788 1.3263281457
| 21> H -1.1950202431 2.1486690255 -0.1588765758
| 22> *
| 23>
| 24>                          ****END OF INPUT****

CARTESIAN COORDINATES (ANGSTROEM)
---------------------------------
  C     -1.480296   -0.001736   -0.243877
  C     -0.732312   -1.244648    0.235916
  C      0.723307   -1.171282   -0.224831
  O      1.367317    0.001596    0.239603
  C      0.720383    1.172922   -0.224837
  C     -0.735375    1.242951    0.235946
  H     -2.501928   -0.002870    0.137535
  H     -1.523232   -0.001818   -1.335742
  H     -0.755199   -1.286909    1.326285
  H     -1.189796   -2.151499   -0.158860
  H      1.309116   -2.000386    0.175685
  H      0.767227   -1.198256   -1.324896
  H      1.304228    2.003533    0.175652
  H      0.764372    1.200499   -1.324810
  H     -0.758361    1.285081    1.326328
  H     -1.195020    2.148669   -0.158877

 Total Charge           Charge          ....    0
 Multiplicity           Mult            ....    1
 Number of Electrons    NEL             ....   48
 Basis Dimension        Dim             ....  104

ORBITAL ENERGIES
----------------

  NO   OCC          E(Eh)            E(eV)
   0   2.0000     -18.748298      -510.1671
   1   2.0000      -9.925844      -270.0959
   2   2.0000      -9.925842      -270.0959
   3   2.0000      -9.887517      -269.0530
   4   2.0000      -9.884261      -268.9644
   5   2.0000      -9.884234      -268.9637
   6   2.0000      -0.932325       -25.3698
   7   2.0000      -0.720666       -19.6103
   8   2.0000      -0.683692       -18.6042
   9   2.0000      -0.569668       -15.5014
  10   2.0000      -0.567734       -15.4488
  11   2.0000      -0.501288       -13.6407
  12   2.0000      -0.443756       -12.0752
  13   2.0000      -0.423336       -11.5195
  14   2.0000      -0.400622       -10.9015
  15   2.0000      -0.393217       -10.7000
  16   2.0000      -0.373761       -10.1706
  17   2.0000      -0.341824        -9.3015
  18   2.0000      -0.330064        -8.9815
  19   2.0000      -0.310853        -8.4587
  20   2.0000      -0.296082        -8.0568
  21   2.0000      -0.281923        -7.6715
  22   2.0000      -0.250874        -6.8266
  23   2.0000      -0.199806        -5.4370
  24   0.0000       0.037501         1.0204
  25   0.0000       0.056092         1.5264
  26   0.0000       0.071199         1.9374
  27   0.0000       0.084725         2.3055
  28   0.0000       0.095809         2.6071

MULLIKEN ATOMIC CHARGES
-----------------------
   0 C :   -0.177842
   1 C :   -0.174808
   2 C :    0.019104
   3 O :   -0.334386
   4 C :    0.018990
   5 C :   -0.174722
   6 H :    0.093735
   7 H :    0.079235
   8 H :    0.086774
   9 H :    0.088093
  10 H :    0.092072
  11 H :    0.058400
  12 H :    0.092068
  13 H :    0.058418
  14 H :    0.086775
  15 H :    0.088094
Sum of atomic charges:   -0.0000000

LOEWDIN ATOMIC CHARGES
----------------------
   0 C :   -0.230071
   1 C :   -0.247040
   2 C :   -0.111453
   3 O :   -0.175264
   4 C :   -0.111462
   5 C :   -0.247032
   6 H :    0.117335
   7 H :    0.113072
   8 H :    0.119655
   9 H :    0.120481
  10 H :    0.112371
  11 H :    0.093446
  12 H :    0.112359
  13 H :    0.093457
  14 H :    0.119658
  15 H :    0.120488

  Mayer bond orders larger than 0.100000
B(  0-C ,  1-C ) :   1.1160 B(  0-C ,  5-C ) :   1.1160 B(  0-C ,  6-H ) :   0.9282
B(  0-C ,  7-H ) :   0.9227 B(  1-C ,  2-C ) :   1.1225 B(  1-C ,  8-H ) :   0.9103
B(  1-C ,  9-H ) :   0.9149 B(  2-C ,  3-O ) :   1.0325 B(  2-C , 10-H ) :   0.9340
B(  2-C , 11-H ) :   0.9067 B(  3-O ,  4-C ) :   1.0325 B(  4-C ,  5-C ) :   1.1225
B(  4-C , 12-H ) :   0.9340 B(  4-C , 13-H ) :   0.9067 B(  5-C , 14-H ) :   0.9103
B(  5-C , 15-H ) :   0.9149

Dispersion correction           -0.012558487
FINAL SINGLE POINT ENERGY      -271.128873116098

DIPOLE MOMENT
-------------

Method             : SCF
Type of density    : Electron Density
Multiplicity       :   1
Irrep              :   0
Energy             :  -271.1911010666842685 Eh
Relativity type    :
Basis              : AO
                                X                 Y                 Z
Electronic contribution:      3.054379286       0.003162030       0.883650299
Nuclear contribution   :     -3.524636000      -0.003688360      -1.086310936
                        -----------------------------------------
Total Dipole Moment    :     -0.470256714      -0.000526330      -0.202660637
                        -----------------------------------------
Magnitude (a.u.)       :      0.512067367
Magnitude (Debye)      :      1.301571808

Rotational constants in cm-1:             0.157550             0.150276             0.087447
Rotational constants in MHz :          4723.241624          4505.166131          2621.582313

                             ****ORCA TERMINATED NORMALLY****
TOTAL RUN TIME: 0 days 0 hours 0 minutes 23 seconds 264 msec
