                         Program Version 6.0.0  -   RELEASE  -
|  1> ! pbe def2-sv(p) def2/J RI DEFGRID1 loosescf d4 GCP(DFT/SV(P)) printgap
|  2> %output
|  3>     printlevel normal
|  4> end
|  5> * xyz 0 1
|  6> C 4.1369218439 -2.3645220622 -0.9716427106
|  7> C 4.3464925729 -0.9601048938 -0.4419708027
|  8> O 3.1194679119 -0.375871419 0.0246323182
|  9> P 1.973732699 0.1006861764 -0.9874500251
| 10> S 2.6545779486 0.8834208613 -2.6471133181
| 11> O 1.1218944145 1.036145706 -0.0308477024
| 12> C 1.5585042075 2.3830574811 0.2557587122
| 13> C 0.7892936429 3.3721137073 -0.5947123173
| 14> S 0.6474938263 -1.5078272724 -1.1922308193
| 15> C 0.2481991825 -1.8590295656 0.5649157606
| 16> S -1.5346888064 -1.9251020955 0.8365961996
| 17> P -1.8839604119 0.1648550362 1.0621506843
| 18> S -0.8430482456 1.0622786443 2.4510403838
| 19> O -3.4633698168 0.2467528786 1.2357567107
| 20> C -4.1147856595 0.1270038647 2.512928522
| 21> C -3.9813831291 -1.2634412098 3.0989368635
| 22> O -1.6905357843 0.7964565667 -0.371322395
| 23> C -2.4434739336 0.3657304634 -1.5334482145
| 24> C -1.8193953941 1.0133358488 -2.7515519273
| 25> H 5.0965436026 -2.7885708731 -1.2491965388
| 26> H 3.6730258472 -2.9916544566 -0.2147803126
| 27> H 3.495365771 -2.337392138 -1.8521280632
| 28> H 4.7620857942 -0.3139408855 -1.2220545118
| 29> H 4.99547652 -0.9493546214 0.4347689864
| 30> H 1.3499364395 2.5232645392 1.3185641273
| 31> H 2.6349573275 2.4573134308 0.0780149906
| 32> H 1.0715747256 4.3817081698 -0.3143137793
| 33> H 1.0121964637 3.2147811769 -1.6480814725
| 34> H -0.2772907249 3.2360551891 -0.4336930618
| 35> H 0.6871858965 -1.0866715214 1.1952014475
| 36> H 0.6337478394 -2.8459118189 0.8048831939
| 37> H -3.6874112127 0.8734664019 3.1896167945
| 38> H -5.154843959 0.3751058774 2.2960259461
| 39> H -4.2904875338 -2.0114546287 2.3731942844
| 40> H -2.9469528354 -1.45328794 3.3801637384
| 41> H -4.6053579495 -1.3392354747 3.9836460959
| 42> H -2.3965473504 -0.7256781896 -1.5962329798
| 43> H -3.4807272486 0.6771426332 -1.3977861408
| 44> H -2.35816609 0.6968037285 -3.6385914984
| 45> H -1.8634457647 2.095658677 -2.6690272678
| 46> H -0.7767170649 0.7152486777 -2.8470679402
| 47> *
| 48>
| 49>                          ****END OF INPUT****

CARTESIAN COORDINATES (ANGSTROEM)
---------------------------------
  C      4.136922   -2.364522   -0.971643
  C      4.346493   -0.960105   -0.441971
  O      3.119468   -0.375871    0.024632
  P      1.973733    0.100686   -0.987450
  S      2.654578    0.883421   -2.647113
  O      1.121894    1.036146   -0.030848
  C      1.558504    2.383057    0.255759
  C      0.789294    3.372114   -0.594712
  S      0.647494   -1.507827   -1.192231
  C      0.248199   -1.859030    0.564916
  S     -1.534689   -1.925102    0.836596
  P     -1.883960    0.164855    1.062151
  S     -0.843048    1.062279    2.451040
  O     -3.463370    0.246753    1.235757
  C     -4.114786    0.127004    2.512929
  C     -3.981383   -1.263441    3.098937
  O     -1.690536    0.796457   -0.371322
  C     -2.443474    0.365730   -1.533448
  C     -1.819395    1.013336   -2.751552
  H      5.096544   -2.788571   -1.249197
  H      3.673026   -2.991654   -0.214780
  H      3.495366   -2.337392   -1.852128
  H      4.762086   -0.313941   -1.222055
  H      4.995477   -0.949355    0.434769
  H      1.349936    2.523265    1.318564
  H      2.634957    2.457313    0.078015
  H      1.071575    4.381708   -0.314314
  H      1.012196    3.214781   -1.648081
  H     -0.277291    3.236055   -0.433693
  H      0.687186   -1.086672    1.195201
  H      0.633748   -2.845912    0.804883
  H     -3.687411    0.873466    3.189617
  H     -5.154844    0.375106    2.296026
  H     -4.290488   -2.011455    2.373194
  H     -2.946953   -1.453288    3.380164
  H     -4.605358   -1.339235    3.983646
  H     -2.396547   -0.725678   -1.596233
  H     -3.480727    0.677143   -1.397786
  H     -2.358166    0.696804   -3.638591
  H     -1.863446    2.095659   -2.669027
  H     -0.776717    0.715249   -2.847068

 Total Charge           Charge          ....    0
 Multiplicity           Mult            ....    1
 Number of Electrons    NEL             ....  202
 Basis Dimension        Dim             ....  334

ORBITAL ENERGIES
----------------

  NO   OCC          E(Eh)            E(eV)
   0   2.0000     -88.049433     -2395.9469
   1   2.0000     -88.045300     -2395.8344
   2   2.0000     -87.988639     -2394.2926
   3   2.0000     -87.988289     -2394.2831
   4   2.0000     -76.429070     -2079.7407
   5   2.0000     -76.424008     -2079.6030
   6   2.0000     -18.799081      -511.5490
   7   2.0000     -18.790732      -511.3218
   8   2.0000     -18.790070      -511.3038
   9   2.0000     -18.781442      -511.0690
  10   2.0000      -9.962160      -271.0842
  11   2.0000      -9.957339      -270.9530
  12   2.0000      -9.950022      -270.7539
  13   2.0000      -9.949902      -270.7506
  14   2.0000      -9.940645      -270.4987
  15   2.0000      -9.889059      -269.0950
  16   2.0000      -9.884620      -268.9742
  17   2.0000      -9.879272      -268.8286
  18   2.0000      -9.868749      -268.5423
  19   2.0000      -7.694486      -209.3776
  20   2.0000      -7.690434      -209.2674
  21   2.0000      -7.633686      -207.7232
  22   2.0000      -7.633342      -207.7138
  23   2.0000      -6.426552      -174.8754
  24   2.0000      -6.421764      -174.7451
  25   2.0000      -5.722318      -155.7122
  26   2.0000      -5.718891      -155.6189
  27   2.0000      -5.718802      -155.6165
  28   2.0000      -5.714646      -155.5034
  29   2.0000      -5.711601      -155.4206
  30   2.0000      -5.707171      -155.3000
  31   2.0000      -5.662686      -154.0895
  32   2.0000      -5.662281      -154.0785
  33   2.0000      -5.654190      -153.8583
  34   2.0000      -5.654031      -153.8540
  35   2.0000      -5.653854      -153.8492
  36   2.0000      -5.653426      -153.8375
  37   2.0000      -4.649476      -126.5187
  38   2.0000      -4.648278      -126.4861
  39   2.0000      -4.646749      -126.4445
  40   2.0000      -4.644082      -126.3719
  41   2.0000      -4.643730      -126.3623
  42   2.0000      -4.642291      -126.3232
  43   2.0000      -0.990746       -26.9596
  44   2.0000      -0.981681       -26.7129
  45   2.0000      -0.946516       -25.7560
  46   2.0000      -0.938668       -25.5425
  47   2.0000      -0.766190       -20.8491
  48   2.0000      -0.722620       -19.6635
  49   2.0000      -0.708095       -19.2682
  50   2.0000      -0.690652       -18.7936
  51   2.0000      -0.683306       -18.5937
  52   2.0000      -0.671630       -18.2760
  53   2.0000      -0.653990       -17.7960
  54   2.0000      -0.639875       -17.4119
  55   2.0000      -0.598624       -16.2894
  56   2.0000      -0.587904       -15.9977
  57   2.0000      -0.570037       -15.5115
  58   2.0000      -0.567537       -15.4435
  59   2.0000      -0.560754       -15.2589
  60   2.0000      -0.506315       -13.7775
  61   2.0000      -0.496619       -13.5137
  62   2.0000      -0.477287       -12.9876
  63   2.0000      -0.465329       -12.6622
  64   2.0000      -0.459241       -12.4966
  65   2.0000      -0.448868       -12.2143
  66   2.0000      -0.440861       -11.9964
  67   2.0000      -0.434432       -11.8215
  68   2.0000      -0.427645       -11.6368
  69   2.0000      -0.421218       -11.4619
  70   2.0000      -0.415748       -11.3131
  71   2.0000      -0.395091       -10.7510
  72   2.0000      -0.391066       -10.6414
  73   2.0000      -0.386180       -10.5085
  74   2.0000      -0.377817       -10.2809
  75   2.0000      -0.372160       -10.1270
  76   2.0000      -0.364652        -9.9227
  77   2.0000      -0.358716        -9.7612
  78   2.0000      -0.351464        -9.5638
  79   2.0000      -0.347506        -9.4561
  80   2.0000      -0.346117        -9.4183
  81   2.0000      -0.341870        -9.3028
  82   2.0000      -0.336501        -9.1567
  83   2.0000      -0.332155        -9.0384
  84   2.0000      -0.326990        -8.8978
  85   2.0000      -0.317826        -8.6485
  86   2.0000      -0.310089        -8.4380
  87   2.0000      -0.302488        -8.2311
  88   2.0000      -0.297799        -8.1035
  89   2.0000      -0.293550        -7.9879
  90   2.0000      -0.281254        -7.6533
  91   2.0000      -0.269840        -7.3427
  92   2.0000      -0.267878        -7.2893
  93   2.0000      -0.263227        -7.1628
  94   2.0000      -0.260790        -7.0965
  95   2.0000      -0.242815        -6.6073
  96   2.0000      -0.221493        -6.0271
  97   2.0000      -0.212266        -5.7760
  98   2.0000      -0.207355        -5.6424
  99   2.0000      -0.202292        -5.5046
 100   2.0000      -0.199248        -5.4218
 101   0.0000      -0.043634        -1.1873
 102   0.0000      -0.029858        -0.8125
 103   0.0000      -0.022681        -0.6172
 104   0.0000       0.002392         0.0651
 105   0.0000       0.018967         0.5161

MULLIKEN ATOMIC CHARGES
-----------------------
   0 C :   -0.311953
   1 C :   -0.007852
   2 O :   -0.380965
   3 P :    0.604124
   4 S :   -0.320880
   5 O :   -0.363540
   6 C :   -0.000710
   7 C :   -0.297783
   8 S :   -0.079906
   9 C :   -0.348801
  10 S :   -0.101402
  11 P :    0.623556
  12 S :   -0.311086
  13 O :   -0.384003
  14 C :   -0.000911
  15 C :   -0.325966
  16 O :   -0.353488
  17 C :   -0.013851
  18 C :   -0.289773
  19 H :    0.112923
  20 H :    0.110456
  21 H :    0.126519
  22 H :    0.111717
  23 H :    0.104504
  24 H :    0.114010
  25 H :    0.096740
  26 H :    0.102150
  27 H :    0.119797
  28 H :    0.123804
  29 H :    0.202504
  30 H :    0.187850
  31 H :    0.113653
  32 H :    0.106523
  33 H :    0.119743
  34 H :    0.131410
  35 H :    0.117255
  36 H :    0.103591
  37 H :    0.104734
  38 H :    0.107098
  39 H :    0.118871
  40 H :    0.129340
Sum of atomic charges:    0.0000000

LOEWDIN ATOMIC CHARGES
----------------------
   0 C :   -0.367219
   1 C :   -0.122998
   2 O :   -0.253405
   3 P :    0.565178
   4 S :   -0.317435
   5 O :   -0.235964
   6 C :   -0.116675
   7 C :   -0.362267
   8 S :    0.089707
   9 C :   -0.472420
  10 S :    0.082239
  11 P :    0.579970
  12 S :   -0.301772
  13 O :   -0.246874
  14 C :   -0.117251
  15 C :   -0.372642
  16 O :   -0.227735
  17 C :   -0.119832
  18 C :   -0.353066
  19 H :    0.130904
  20 H :    0.121739
  21 H :    0.121422
  22 H :    0.109127
  23 H :    0.117989
  24 H :    0.114046
  25 H :    0.105380
  26 H :    0.126242
  27 H :    0.121824
  28 H :    0.126058
  29 H :    0.132607
  30 H :    0.137056
  31 H :    0.113059
  32 H :    0.119449
  33 H :    0.124003
  34 H :    0.122755
  35 H :    0.133409
  36 H :    0.101491
  37 H :    0.111927
  38 H :    0.129566
  39 H :    0.127070
  40 H :    0.123337

  Mayer bond orders larger than 0.100000
B(  0-C ,  1-C ) :   1.1626 B(  0-C , 19-H ) :   0.9392 B(  0-C , 20-H ) :   0.9470
B(  0-C , 21-H ) :   0.9361 B(  1-C ,  2-O ) :   0.9174 B(  1-C , 22-H ) :   0.9119
B(  1-C , 23-H ) :   0.9335 B(  2-O ,  3-P ) :   1.0636 B(  3-P ,  4-S ) :   1.6154
B(  3-P ,  5-O ) :   1.1305 B(  3-P ,  8-S ) :   0.9866 B(  5-O ,  6-C ) :   0.8832
B(  6-C ,  7-C ) :   1.1764 B(  6-C , 24-H ) :   0.9166 B(  6-C , 25-H ) :   0.9138
B(  7-C , 26-H ) :   0.9399 B(  7-C , 27-H ) :   0.9370 B(  7-C , 28-H ) :   0.9385
B(  8-S ,  9-C ) :   0.9556 B(  9-C , 10-S ) :   1.0129 B(  9-C , 29-H ) :   0.8681
B(  9-C , 30-H ) :   0.9094 B( 10-S , 11-P ) :   0.9435 B( 10-S , 12-S ) :   0.1038
B( 11-P , 12-S ) :   1.6338 B( 11-P , 13-O ) :   1.0868 B( 11-P , 16-O ) :   1.1400
B( 13-O , 14-C ) :   0.9072 B( 14-C , 15-C ) :   1.1659 B( 14-C , 31-H ) :   0.9175
B( 14-C , 32-H ) :   0.9336 B( 15-C , 33-H ) :   0.9432 B( 15-C , 34-H ) :   0.9343
B( 15-C , 35-H ) :   0.9370 B( 16-O , 17-C ) :   0.8869 B( 17-C , 18-C ) :   1.1659
B( 17-C , 36-H ) :   0.9076 B( 17-C , 37-H ) :   0.9272 B( 18-C , 38-H ) :   0.9397
B( 18-C , 39-H ) :   0.9485 B( 18-C , 40-H ) :   0.9355

Dispersion correction           -0.067561038
FINAL SINGLE POINT ENERGY     -2929.523425846378

DIPOLE MOMENT
-------------

Method             : SCF
Type of density    : Electron Density
Multiplicity       :   1
Irrep              :   0
Energy             : -2929.6434972969650516 Eh
Relativity type    :
Basis              : AO
                                X                 Y                 Z
Electronic contribution:      1.770530134      -2.800799856       0.613620220
Nuclear contribution   :     -2.396349383       2.085815946      -0.065153419
                        -----------------------------------------
Total Dipole Moment    :     -0.625819249      -0.714983910       0.548466801
                        -----------------------------------------
Magnitude (a.u.)       :      1.097117840
Magnitude (Debye)      :      2.788651932

Rotational constants in cm-1:             0.012760             0.005343             0.004968
Rotational constants in MHz :           382.532250           160.177645           148.933153

                             ****ORCA TERMINATED NORMALLY****
TOTAL RUN TIME: 0 days 0 hours 0 minutes 21 seconds 918 msec
