                         Program Version 6.0.0  -   RELEASE  -
|  1> ! pbe def2-sv(p) def2/J RI DEFGRID1 loosescf d4 GCP(DFT/SV(P)) printgap
|  2> %output
|  3>     printlevel normal
|  4> end
|  5> * xyz 0 1
|  6> C 2.7816424655 -1.0535486077 -2.5980387514
|  7> C 2.8942803663 0.3525334959 -2.0435649172
|  8> O 3.2253740957 0.3230381848 -0.6450225939
|  9> P 2.201865674 0.4644721676 0.5552281498
| 10> S 1.0853249177 2.0754730134 0.5576125767
| 11> O 3.1634615485 0.5121049215 1.8030373099
| 12> C 3.9001655164 -0.5954929981 2.378704924
| 13> C 4.7678957894 -1.3207286015 1.3737092062
| 14> S 1.1723783385 -1.3943147089 0.7094156497
| 15> C -0.2445826862 -0.8054435679 1.6910349739
| 16> S -1.8529708752 -1.2830862661 1.0111306514
| 17> P -2.0121486923 0.0878506384 -0.6134654341
| 18> S -0.6391553154 -0.0116774549 -1.999469166
| 19> O -2.1552778982 1.537552544 -0.0272545741
| 20> C -3.202034358 1.978979072 0.87588832
| 21> C -2.7072149092 1.9939322416 2.3087793849
| 22> O -3.4846191881 -0.226770598 -1.1221266631
| 23> C -3.7852214154 -1.4381685022 -1.8462676653
| 24> C -5.0863347873 -1.2247917811 -2.5923785821
| 25> H 3.6924154513 -1.6099721862 -2.3963657978
| 26> H 1.9357216203 -1.5698013858 -2.1497341667
| 27> H 2.6196768388 -0.9964368778 -3.6692958188
| 28> H 1.9629950208 0.9076054924 -2.1900531076
| 29> H 3.7178267136 0.8980515719 -2.5083033848
| 30> H 4.4965210799 -0.1149151442 3.1555815675
| 31> H 3.1806860479 -1.2817447853 2.8325298074
| 32> H 5.4163048918 -0.6177152382 0.8576139676
| 33> H 5.3745883048 -2.0544202985 1.895635587
| 34> H 4.1468597739 -1.8322437272 0.6408980052
| 35> H -0.1830634242 0.284940999 1.7500167498
| 36> H -0.1993499185 -1.2655964477 2.6745094792
| 37> H -3.4345067149 2.9873233597 0.5301121608
| 38> H -4.0734409204 1.3337237335 0.7540909276
| 39> H -1.7523002947 2.5131237439 2.3603288042
| 40> H -3.4297642762 2.5179303282 2.9262829312
| 41> H -2.5858305407 0.9826381238 2.6892211592
| 42> H -2.9582175688 -1.6474920444 -2.5328326317
| 43> H -3.8663687825 -2.2527639456 -1.1219486782
| 44> H -4.9834782878 -0.4008840853 -3.293174829
| 45> H -5.3351821799 -2.1295490574 -3.1369503515
| 46> H -5.8840442949 -0.9945411458 -1.8922761089
| 47> *
| 48>
| 49>                          ****END OF INPUT****

CARTESIAN COORDINATES (ANGSTROEM)
---------------------------------
  C      2.781642   -1.053549   -2.598039
  C      2.894280    0.352533   -2.043565
  O      3.225374    0.323038   -0.645023
  P      2.201866    0.464472    0.555228
  S      1.085325    2.075473    0.557613
  O      3.163462    0.512105    1.803037
  C      3.900166   -0.595493    2.378705
  C      4.767896   -1.320729    1.373709
  S      1.172378   -1.394315    0.709416
  C     -0.244583   -0.805444    1.691035
  S     -1.852971   -1.283086    1.011131
  P     -2.012149    0.087851   -0.613465
  S     -0.639155   -0.011677   -1.999469
  O     -2.155278    1.537553   -0.027255
  C     -3.202034    1.978979    0.875888
  C     -2.707215    1.993932    2.308779
  O     -3.484619   -0.226771   -1.122127
  C     -3.785221   -1.438169   -1.846268
  C     -5.086335   -1.224792   -2.592379
  H      3.692415   -1.609972   -2.396366
  H      1.935722   -1.569801   -2.149734
  H      2.619677   -0.996437   -3.669296
  H      1.962995    0.907605   -2.190053
  H      3.717827    0.898052   -2.508303
  H      4.496521   -0.114915    3.155582
  H      3.180686   -1.281745    2.832530
  H      5.416305   -0.617715    0.857614
  H      5.374588   -2.054420    1.895636
  H      4.146860   -1.832244    0.640898
  H     -0.183063    0.284941    1.750017
  H     -0.199350   -1.265596    2.674509
  H     -3.434507    2.987323    0.530112
  H     -4.073441    1.333724    0.754091
  H     -1.752300    2.513124    2.360329
  H     -3.429764    2.517930    2.926283
  H     -2.585831    0.982638    2.689221
  H     -2.958218   -1.647492   -2.532833
  H     -3.866369   -2.252764   -1.121949
  H     -4.983478   -0.400884   -3.293175
  H     -5.335182   -2.129549   -3.136950
  H     -5.884044   -0.994541   -1.892276

 Total Charge           Charge          ....    0
 Multiplicity           Mult            ....    1
 Number of Electrons    NEL             ....  202
 Basis Dimension        Dim             ....  334

ORBITAL ENERGIES
----------------

  NO   OCC          E(Eh)            E(eV)
   0   2.0000     -88.042809     -2395.7666
   1   2.0000     -88.039414     -2395.6743
   2   2.0000     -87.977114     -2393.9790
   3   2.0000     -87.973283     -2393.8747
   4   2.0000     -76.422786     -2079.5697
   5   2.0000     -76.419387     -2079.4772
   6   2.0000     -18.791750      -511.3495
   7   2.0000     -18.788419      -511.2589
   8   2.0000     -18.787797      -511.2420
   9   2.0000     -18.781513      -511.0710
  10   2.0000      -9.955467      -270.9020
  11   2.0000      -9.954287      -270.8699
  12   2.0000      -9.953706      -270.8541
  13   2.0000      -9.952838      -270.8305
  14   2.0000      -9.944101      -270.5928
  15   2.0000      -9.889119      -269.0966
  16   2.0000      -9.885668      -269.0027
  17   2.0000      -9.883264      -268.9373
  18   2.0000      -9.876301      -268.7478
  19   2.0000      -7.687908      -209.1986
  20   2.0000      -7.683972      -209.0915
  21   2.0000      -7.622277      -207.4127
  22   2.0000      -7.618538      -207.3110
  23   2.0000      -6.420239      -174.7036
  24   2.0000      -6.416735      -174.6082
  25   2.0000      -5.715541      -155.5278
  26   2.0000      -5.712432      -155.4432
  27   2.0000      -5.711730      -155.4241
  28   2.0000      -5.708555      -155.3377
  29   2.0000      -5.705124      -155.2443
  30   2.0000      -5.701068      -155.1340
  31   2.0000      -5.651265      -153.7787
  32   2.0000      -5.647595      -153.6789
  33   2.0000      -5.642853      -153.5498
  34   2.0000      -5.642329      -153.5356
  35   2.0000      -5.639278      -153.4526
  36   2.0000      -5.638367      -153.4278
  37   2.0000      -4.643243      -126.3491
  38   2.0000      -4.642118      -126.3184
  39   2.0000      -4.640211      -126.2666
  40   2.0000      -4.639466      -126.2463
  41   2.0000      -4.638698      -126.2254
  42   2.0000      -4.636879      -126.1759
  43   2.0000      -0.986660       -26.8484
  44   2.0000      -0.980570       -26.6827
  45   2.0000      -0.943387       -25.6709
  46   2.0000      -0.938316       -25.5329
  47   2.0000      -0.759510       -20.6673
  48   2.0000      -0.719271       -19.5724
  49   2.0000      -0.710517       -19.3341
  50   2.0000      -0.690976       -18.8024
  51   2.0000      -0.685807       -18.6618
  52   2.0000      -0.674398       -18.3513
  53   2.0000      -0.645556       -17.5665
  54   2.0000      -0.628785       -17.1101
  55   2.0000      -0.591792       -16.1035
  56   2.0000      -0.583701       -15.8833
  57   2.0000      -0.572800       -15.5867
  58   2.0000      -0.569658       -15.5012
  59   2.0000      -0.561650       -15.2833
  60   2.0000      -0.507880       -13.8201
  61   2.0000      -0.492349       -13.3975
  62   2.0000      -0.476820       -12.9749
  63   2.0000      -0.470065       -12.7911
  64   2.0000      -0.453226       -12.3329
  65   2.0000      -0.446196       -12.1416
  66   2.0000      -0.440006       -11.9732
  67   2.0000      -0.435578       -11.8527
  68   2.0000      -0.433301       -11.7907
  69   2.0000      -0.418385       -11.3848
  70   2.0000      -0.406035       -11.0488
  71   2.0000      -0.395741       -10.7687
  72   2.0000      -0.385953       -10.5023
  73   2.0000      -0.381873       -10.3913
  74   2.0000      -0.380308       -10.3487
  75   2.0000      -0.369219       -10.0469
  76   2.0000      -0.361537        -9.8379
  77   2.0000      -0.354356        -9.6425
  78   2.0000      -0.352960        -9.6045
  79   2.0000      -0.349768        -9.5177
  80   2.0000      -0.347555        -9.4575
  81   2.0000      -0.343311        -9.3420
  82   2.0000      -0.340099        -9.2546
  83   2.0000      -0.335714        -9.1352
  84   2.0000      -0.326794        -8.8925
  85   2.0000      -0.316944        -8.6245
  86   2.0000      -0.311136        -8.4664
  87   2.0000      -0.302296        -8.2259
  88   2.0000      -0.293728        -7.9927
  89   2.0000      -0.285081        -7.7575
  90   2.0000      -0.282754        -7.6941
  91   2.0000      -0.270822        -7.3695
  92   2.0000      -0.269180        -7.3248
  93   2.0000      -0.260279        -7.0826
  94   2.0000      -0.255673        -6.9572
  95   2.0000      -0.239905        -6.5281
  96   2.0000      -0.221964        -6.0400
  97   2.0000      -0.201851        -5.4927
  98   2.0000      -0.193836        -5.2746
  99   2.0000      -0.186198        -5.0667
 100   2.0000      -0.179023        -4.8715
 101   0.0000      -0.038658        -1.0519
 102   0.0000      -0.030148        -0.8204
 103   0.0000      -0.012709        -0.3458
 104   0.0000       0.004541         0.1236
 105   0.0000       0.026188         0.7126

MULLIKEN ATOMIC CHARGES
-----------------------
   0 C :   -0.314446
   1 C :   -0.011831
   2 O :   -0.372796
   3 P :    0.598276
   4 S :   -0.299156
   5 O :   -0.361512
   6 C :    0.003609
   7 C :   -0.311532
   8 S :   -0.103241
   9 C :   -0.355562
  10 S :   -0.124278
  11 P :    0.617594
  12 S :   -0.312041
  13 O :   -0.345704
  14 C :   -0.009820
  15 C :   -0.307775
  16 O :   -0.386197
  17 C :   -0.012455
  18 C :   -0.281259
  19 H :    0.110771
  20 H :    0.139846
  21 H :    0.110900
  22 H :    0.131215
  23 H :    0.103380
  24 H :    0.108762
  25 H :    0.100461
  26 H :    0.124358
  27 H :    0.111495
  28 H :    0.121193
  29 H :    0.201984
  30 H :    0.179558
  31 H :    0.112690
  32 H :    0.106058
  33 H :    0.138719
  34 H :    0.109989
  35 H :    0.118407
  36 H :    0.105893
  37 H :    0.104307
  38 H :    0.123283
  39 H :    0.112624
  40 H :    0.114233
Sum of atomic charges:   -0.0000000

LOEWDIN ATOMIC CHARGES
----------------------
   0 C :   -0.366223
   1 C :   -0.115918
   2 O :   -0.234457
   3 P :    0.568415
   4 S :   -0.302416
   5 O :   -0.241921
   6 C :   -0.114426
   7 C :   -0.367032
   8 S :    0.070036
   9 C :   -0.483324
  10 S :    0.058386
  11 P :    0.566690
  12 S :   -0.302338
  13 O :   -0.224654
  14 C :   -0.108467
  15 C :   -0.366072
  16 O :   -0.251758
  17 C :   -0.120497
  18 C :   -0.350631
  19 H :    0.121585
  20 H :    0.122081
  21 H :    0.131425
  22 H :    0.111641
  23 H :    0.117958
  24 H :    0.121583
  25 H :    0.105537
  26 H :    0.129528
  27 H :    0.130221
  28 H :    0.117888
  29 H :    0.122025
  30 H :    0.134652
  31 H :    0.123899
  32 H :    0.110347
  33 H :    0.133113
  34 H :    0.129754
  35 H :    0.117602
  36 H :    0.109317
  37 H :    0.109095
  38 H :    0.130446
  39 H :    0.131312
  40 H :    0.125600

  Mayer bond orders larger than 0.100000
B(  0-C ,  1-C ) :   1.1707 B(  0-C , 19-H ) :   0.9452 B(  0-C , 20-H ) :   0.9317
B(  0-C , 21-H ) :   0.9405 B(  1-C ,  2-O ) :   0.8961 B(  1-C , 22-H ) :   0.9035
B(  1-C , 23-H ) :   0.9335 B(  2-O ,  3-P ) :   1.1153 B(  3-P ,  4-S ) :   1.6359
B(  3-P ,  5-O ) :   1.1271 B(  3-P ,  8-S ) :   0.9365 B(  4-S ,  8-S ) :   0.1145
B(  4-S , 29-H ) :   0.1120 B(  5-O ,  6-C ) :   0.9086 B(  6-C ,  7-C ) :   1.1710
B(  6-C , 24-H ) :   0.9343 B(  6-C , 25-H ) :   0.9203 B(  7-C , 26-H ) :   0.9432
B(  7-C , 27-H ) :   0.9354 B(  7-C , 28-H ) :   0.9378 B(  8-S ,  9-C ) :   0.9950
B(  9-C , 10-S ) :   0.9962 B(  9-C , 29-H ) :   0.8408 B(  9-C , 30-H ) :   0.9111
B( 10-S , 11-P ) :   0.9427 B( 10-S , 12-S ) :   0.1133 B( 11-P , 12-S ) :   1.6676
B( 11-P , 13-O ) :   1.1505 B( 11-P , 16-O ) :   1.0792 B( 13-O , 14-C ) :   0.8944
B( 14-C , 15-C ) :   1.1704 B( 14-C , 31-H ) :   0.9346 B( 14-C , 32-H ) :   0.9196
B( 15-C , 33-H ) :   0.9354 B( 15-C , 34-H ) :   0.9382 B( 15-C , 35-H ) :   0.9337
B( 16-O , 17-C ) :   0.9042 B( 17-C , 18-C ) :   1.1615 B( 17-C , 36-H ) :   0.9061
B( 17-C , 37-H ) :   0.9298 B( 18-C , 38-H ) :   0.9505 B( 18-C , 39-H ) :   0.9415
B( 18-C , 40-H ) :   0.9513

Dispersion correction           -0.066239427
FINAL SINGLE POINT ENERGY     -2929.511274584384

DIPOLE MOMENT
-------------

Method             : SCF
Type of density    : Electron Density
Multiplicity       :   1
Irrep              :   0
Energy             : -2929.6297128503351814 Eh
Relativity type    :
Basis              : AO
                                X                 Y                 Z
Electronic contribution:      1.666179242       5.342124353       2.218984541
Nuclear contribution   :     -2.161153764      -6.394538550      -1.667236233
                        -----------------------------------------
Total Dipole Moment    :     -0.494974522      -1.052414197       0.551748307
                        -----------------------------------------
Magnitude (a.u.)       :      1.287245747
Magnitude (Debye)      :      3.271918666

Rotational constants in cm-1:             0.012782             0.005099             0.004612
Rotational constants in MHz :           383.209127           152.876686           138.254655

                             ****ORCA TERMINATED NORMALLY****
TOTAL RUN TIME: 0 days 0 hours 0 minutes 20 seconds 804 msec
