                         Program Version 6.0.0  -   RELEASE  -
|  1> ! r2scan-3c def2/J RI DEFGRID2 scfconv6 printgap
|  2> %output
|  3>     printlevel normal
|  4> end
|  5> * xyz 0 1
|  6> C -1.238543993 1.4542e-06 3.8777e-06
|  7> Cl 0.5533275016 -6.429e-07 1.2694e-06
|  8> H -1.5678674114 -0.0825607977 -1.0293675874
|  9> H -1.5679987257 -0.850181378 0.5861370564
| 10> H -1.567941795 0.932747459 0.4431396705
| 11> *
| 12>
| 13>                          ****END OF INPUT****

CARTESIAN COORDINATES (ANGSTROEM)
---------------------------------
  C     -1.238544    0.000001    0.000004
  Cl     0.553328   -0.000001    0.000001
  H     -1.567867   -0.082561   -1.029368
  H     -1.567999   -0.850181    0.586137
  H     -1.567942    0.932747    0.443140

 Total Charge           Charge          ....    0
 Multiplicity           Mult            ....    1
 Number of Electrons    NEL             ....   26
 Basis Dimension        Dim             ....   61

ORBITAL ENERGIES
----------------

  NO   OCC          E(Eh)            E(eV)
   0   2.0000    -101.203259     -2753.8807
   1   2.0000     -10.091194      -274.5953
   2   2.0000      -9.359127      -254.6748
   3   2.0000      -7.105677      -193.3553
   4   2.0000      -7.094991      -193.0645
   5   2.0000      -7.094991      -193.0645
   6   2.0000      -0.814024       -22.1507
   7   2.0000      -0.645305       -17.5596
   8   2.0000      -0.422273       -11.4906
   9   2.0000      -0.422266       -11.4904
  10   2.0000      -0.388555       -10.5731
  11   2.0000      -0.268071        -7.2946
  12   2.0000      -0.268068        -7.2945
  13   0.0000       0.002703         0.0736
  14   0.0000       0.097258         2.6465
  15   0.0000       0.164090         4.4651
  16   0.0000       0.164099         4.4654
  17   0.0000       0.191590         5.2134

MULLIKEN ATOMIC CHARGES
-----------------------
   0 C :   -0.278172
   1 Cl:   -0.201594
   2 H :    0.159923
   3 H :    0.159921
   4 H :    0.159922
Sum of atomic charges:   -0.0000000

LOEWDIN ATOMIC CHARGES
----------------------
   0 C :   -0.423019
   1 Cl:   -0.032300
   2 H :    0.151772
   3 H :    0.151774
   4 H :    0.151774

  Mayer bond orders larger than 0.100000
B(  0-C ,  1-Cl) :   0.9726 B(  0-C ,  2-H ) :   0.9592 B(  0-C ,  3-H ) :   0.9592
B(  0-C ,  4-H ) :   0.9592

Dispersion correction           -0.000565525
FINAL SINGLE POINT ENERGY      -500.067100332519

DIPOLE MOMENT
-------------

Method             : SCF
Type of density    : Electron Density
Multiplicity       :   1
Irrep              :   0
Energy             :  -500.0719897109535736 Eh
Relativity type    :
Basis              : AO
                                X                 Y                 Z
Electronic contribution:      4.343027619      -0.000004962       0.000066658
Nuclear contribution   :     -5.155668245       0.000005820      -0.000086947
                        -----------------------------------------
Total Dipole Moment    :     -0.812640626       0.000000858      -0.000020289
                        -----------------------------------------
Magnitude (a.u.)       :      0.812640626
Magnitude (Debye)      :      2.065568318

Rotational constants in cm-1:             5.227561             0.439848             0.439847
Rotational constants in MHz :        156718.337920         13186.315974         13186.275940

                             ****ORCA TERMINATED NORMALLY****
TOTAL RUN TIME: 0 days 0 hours 0 minutes 4 seconds 550 msec
