                         Program Version 6.0.0  -   RELEASE  -
|  1> ! r2scan-3c def2/J RI DEFGRID2 scfconv6 printgap
|  2> %output
|  3>     printlevel normal
|  4> end
|  5> %cpcm
|  6>     smd true
|  7>     smdsolvent "water"
|  8> end
|  9> * xyz 0 1
| 10> C -1.238543993 1.4542e-06 3.8777e-06
| 11> Cl 0.5533275016 -6.429e-07 1.2694e-06
| 12> H -1.5678674114 -0.0825607977 -1.0293675874
| 13> H -1.5679987257 -0.850181378 0.5861370564
| 14> H -1.567941795 0.932747459 0.4431396705
| 15> *
| 16>
| 17>                          ****END OF INPUT****

CARTESIAN COORDINATES (ANGSTROEM)
---------------------------------
  C     -1.238544    0.000001    0.000004
  Cl     0.553328   -0.000001    0.000001
  H     -1.567867   -0.082561   -1.029368
  H     -1.567999   -0.850181    0.586137
  H     -1.567942    0.932747    0.443140

 Total Charge           Charge          ....    0
 Multiplicity           Mult            ....    1
 Number of Electrons    NEL             ....   26
 Basis Dimension        Dim             ....   61

ORBITAL ENERGIES
----------------

  NO   OCC          E(Eh)            E(eV)
   0   2.0000    -101.202476     -2753.8594
   1   2.0000     -10.074889      -274.1517
   2   2.0000      -9.358650      -254.6618
   3   2.0000      -7.104737      -193.3297
   4   2.0000      -7.094725      -193.0573
   5   2.0000      -7.094725      -193.0573
   6   2.0000      -0.809835       -22.0367
   7   2.0000      -0.632594       -17.2138
   8   2.0000      -0.406344       -11.0572
   9   2.0000      -0.406327       -11.0567
  10   2.0000      -0.382517       -10.4088
  11   2.0000      -0.267470        -7.2782
  12   2.0000      -0.267465        -7.2781
  13   0.0000       0.010828         0.2947
  14   0.0000       0.110675         3.0116
  15   0.0000       0.183035         4.9806
  16   0.0000       0.183047         4.9810
  17   0.0000       0.209645         5.7047

MULLIKEN ATOMIC CHARGES
-----------------------
   0 C :   -0.297195
   1 Cl:   -0.249765
   2 H :    0.182235
   3 H :    0.182329
   4 H :    0.182395
Sum of atomic charges:    0.0000000

LOEWDIN ATOMIC CHARGES
----------------------
   0 C :   -0.417374
   1 Cl:   -0.066575
   2 H :    0.161282
   3 H :    0.161327
   4 H :    0.161340

  Mayer bond orders larger than 0.100000
B(  0-C ,  1-Cl) :   0.9469 B(  0-C ,  2-H ) :   0.9526 B(  0-C ,  3-H ) :   0.9525
B(  0-C ,  4-H ) :   0.9525

Dispersion correction           -0.000565525
FINAL SINGLE POINT ENERGY      -500.068782855922

DIPOLE MOMENT
-------------

Method             : SCF
Type of density    : Electron Density
Multiplicity       :   1
Irrep              :   0
Energy             :  -500.0736722343568204 Eh
Relativity type    :
Basis              : AO
                                X                 Y                 Z
Electronic contribution:      4.112787217       0.000008825       0.000231623
Nuclear contribution   :     -5.155668245       0.000005820      -0.000086947
                        -----------------------------------------
Total Dipole Moment    :     -1.042881028       0.000014645       0.000144676
                        -----------------------------------------
Magnitude (a.u.)       :      1.042881038
Magnitude (Debye)      :      2.650792937

Rotational constants in cm-1:             5.227561             0.439848             0.439847
Rotational constants in MHz :        156718.337920         13186.315974         13186.275940

                             ****ORCA TERMINATED NORMALLY****
TOTAL RUN TIME: 0 days 0 hours 0 minutes 5 seconds 245 msec
