                         Program Version 6.0.1  -  RELEASE   -
|  1> ! pbe def2-sv(p) def2/J RI DEFGRID1 loosescf d4 GCP(DFT/SV(P)) printgap
|  2> %output
|  3>     printlevel normal
|  4> end
|  5> * xyz 0 1
|  6> C 4.2809849864 -3.8202991248 -1.0385115624
|  7> C 2.762164781 -3.7856961704 -0.9776916353
|  8> O 2.2989157815 -2.6062929738 -0.2908338398
|  9> C 2.1725347269 -1.4901708067 -0.9790758104
| 10> O 2.3733568001 -1.3837282899 -2.1684306807
| 11> C 1.7304707339 -0.3417481107 -0.0917632174
| 12> C 0.7460378492 0.5449736516 -0.8421853442
| 13> H 1.1628814615 0.7822718245 -1.8281811213
| 14> C 0.4195106808 1.8463592193 -0.1350858327
| 15> O -0.7053908302 2.3040638654 -0.1042790732
| 16> O 1.4775845918 2.3996878032 0.3909680077
| 17> C 1.3149243474 3.6515898641 1.0916568872
| 18> C 1.3254196886 4.8245421 0.1259351678
| 19> S -0.8182531481 -0.3147033986 -1.210378543
| 20> P -1.8715421631 -0.0048914608 0.6160853763
| 21> S -0.8515016962 0.2806582123 2.2625724708
| 22> O -3.0469399182 1.0283199966 0.4186455799
| 23> C -3.9130209945 1.0183183439 -0.7320521056
| 24> O -2.7322904809 -1.362543695 0.6594033458
| 25> C -2.1124330216 -2.6248168591 0.9175296422
| 26> H 4.600225192 -4.7520905997 -1.4934719968
| 27> H 4.650457345 -2.9909462531 -1.637247319
| 28> H 4.6973783106 -3.7487724072 -0.0374807423
| 29> H 2.3690079776 -4.6142734087 -0.3888667728
| 30> H 2.3338409354 -3.7923499185 -1.9840042303
| 31> H 2.6110155942 0.2531456331 0.162323601
| 32> H 1.3006635085 -0.7333296127 0.8313164997
| 33> H 0.3776441302 3.6115401824 1.6539709067
| 34> H 2.1639703174 3.684336834 1.773887227
| 35> H 1.2750386884 5.7497876473 0.6901285696
| 36> H 2.2364567878 4.8141895162 -0.4659989504
| 37> H 0.4667012982 4.7711047822 -0.5395066647
| 38> H -3.3322202668 1.2267703371 -1.6303863033
| 39> H -4.6320303599 1.8124181433 -0.5487772444
| 40> H -4.409463646 0.0532700187 -0.8176073882
| 41> H -1.4867822438 -2.5590912703 1.8093453373
| 42> H -1.5089976641 -2.9251561295 0.0606353971
| 43> H -2.9282288164 -3.3251974321 1.076250543
| 44> *
| 45>
| 46>                          ****END OF INPUT****

CARTESIAN COORDINATES (ANGSTROEM)
---------------------------------
  C      4.280985   -3.820299   -1.038512
  C      2.762165   -3.785696   -0.977692
  O      2.298916   -2.606293   -0.290834
  C      2.172535   -1.490171   -0.979076
  O      2.373357   -1.383728   -2.168431
  C      1.730471   -0.341748   -0.091763
  C      0.746038    0.544974   -0.842185
  H      1.162881    0.782272   -1.828181
  C      0.419511    1.846359   -0.135086
  O     -0.705391    2.304064   -0.104279
  O      1.477585    2.399688    0.390968
  C      1.314924    3.651590    1.091657
  C      1.325420    4.824542    0.125935
  S     -0.818253   -0.314703   -1.210379
  P     -1.871542   -0.004891    0.616085
  S     -0.851502    0.280658    2.262572
  O     -3.046940    1.028320    0.418646
  C     -3.913021    1.018318   -0.732052
  O     -2.732290   -1.362544    0.659403
  C     -2.112433   -2.624817    0.917530
  H      4.600225   -4.752091   -1.493472
  H      4.650457   -2.990946   -1.637247
  H      4.697378   -3.748772   -0.037481
  H      2.369008   -4.614273   -0.388867
  H      2.333841   -3.792350   -1.984004
  H      2.611016    0.253146    0.162324
  H      1.300664   -0.733330    0.831316
  H      0.377644    3.611540    1.653971
  H      2.163970    3.684337    1.773887
  H      1.275039    5.749788    0.690129
  H      2.236457    4.814190   -0.465999
  H      0.466701    4.771105   -0.539507
  H     -3.332220    1.226770   -1.630386
  H     -4.632030    1.812418   -0.548777
  H     -4.409464    0.053270   -0.817607
  H     -1.486782   -2.559091    1.809345
  H     -1.508998   -2.925156    0.060635
  H     -2.928229   -3.325197    1.076251

 Total Charge           Charge          ....    0
 Multiplicity           Mult            ....    1
 Number of Electrons    NEL             ....  174
 Basis Dimension        Dim             ....  316

ORBITAL ENERGIES
----------------

  NO   OCC          E(Eh)            E(eV)
   0   2.0000     -88.037687     -2395.6273
   1   2.0000     -87.977663     -2393.9939
   2   2.0000     -76.421341     -2079.5304
   3   2.0000     -18.814790      -511.9765
   4   2.0000     -18.804805      -511.7048
   5   2.0000     -18.783924      -511.1366
   6   2.0000     -18.783336      -511.1206
   7   2.0000     -18.742230      -510.0020
   8   2.0000     -18.741942      -509.9942
   9   2.0000     -10.020704      -272.6772
  10   2.0000     -10.010804      -272.4078
  11   2.0000      -9.951623      -270.7974
  12   2.0000      -9.950381      -270.7636
  13   2.0000      -9.947440      -270.6836
  14   2.0000      -9.942318      -270.5442
  15   2.0000      -9.937758      -270.4201
  16   2.0000      -9.903823      -269.4967
  17   2.0000      -9.889701      -269.1124
  18   2.0000      -9.889581      -269.1092
  19   2.0000      -7.682288      -209.0457
  20   2.0000      -7.622896      -207.4296
  21   2.0000      -6.417744      -174.6357
  22   2.0000      -5.710199      -155.3824
  23   2.0000      -5.706801      -155.2900
  24   2.0000      -5.699281      -155.0853
  25   2.0000      -5.652077      -153.8008
  26   2.0000      -5.643472      -153.5667
  27   2.0000      -5.642747      -153.5469
  28   2.0000      -4.640455      -126.2732
  29   2.0000      -4.639731      -126.2535
  30   2.0000      -4.638149      -126.2105
  31   2.0000      -1.022932       -27.8354
  32   2.0000      -1.012655       -27.5558
  33   2.0000      -0.978515       -26.6267
  34   2.0000      -0.934068       -25.4173
  35   2.0000      -0.924559       -25.1585
  36   2.0000      -0.918802       -25.0019
  37   2.0000      -0.763428       -20.7739
  38   2.0000      -0.712096       -19.3771
  39   2.0000      -0.708676       -19.2840
  40   2.0000      -0.689097       -18.7513
  41   2.0000      -0.656136       -17.8544
  42   2.0000      -0.629119       -17.1192
  43   2.0000      -0.625844       -17.0301
  44   2.0000      -0.615625       -16.7520
  45   2.0000      -0.597504       -16.2589
  46   2.0000      -0.565470       -15.3872
  47   2.0000      -0.511812       -13.9271
  48   2.0000      -0.501986       -13.6597
  49   2.0000      -0.498597       -13.5675
  50   2.0000      -0.483545       -13.1579
  51   2.0000      -0.467738       -12.7278
  52   2.0000      -0.454156       -12.3582
  53   2.0000      -0.445907       -12.1337
  54   2.0000      -0.434775       -11.8308
  55   2.0000      -0.429260       -11.6808
  56   2.0000      -0.424729       -11.5575
  57   2.0000      -0.421147       -11.4600
  58   2.0000      -0.414436       -11.2774
  59   2.0000      -0.408127       -11.1057
  60   2.0000      -0.400503       -10.8983
  61   2.0000      -0.396143       -10.7796
  62   2.0000      -0.394422       -10.7328
  63   2.0000      -0.386098       -10.5063
  64   2.0000      -0.384612       -10.4658
  65   2.0000      -0.368170       -10.0184
  66   2.0000      -0.359808        -9.7909
  67   2.0000      -0.350844        -9.5470
  68   2.0000      -0.350308        -9.5324
  69   2.0000      -0.338557        -9.2126
  70   2.0000      -0.337030        -9.1710
  71   2.0000      -0.329457        -8.9650
  72   2.0000      -0.323486        -8.8025
  73   2.0000      -0.307583        -8.3698
  74   2.0000      -0.302139        -8.2216
  75   2.0000      -0.297263        -8.0889
  76   2.0000      -0.294411        -8.0113
  77   2.0000      -0.288916        -7.8618
  78   2.0000      -0.270577        -7.3628
  79   2.0000      -0.264018        -7.1843
  80   2.0000      -0.261772        -7.1232
  81   2.0000      -0.253177        -6.8893
  82   2.0000      -0.237119        -6.4523
  83   2.0000      -0.227969        -6.2033
  84   2.0000      -0.218192        -5.9373
  85   2.0000      -0.195634        -5.3235
  86   2.0000      -0.193431        -5.2635
  87   0.0000      -0.042636        -1.1602
  88   0.0000      -0.028248        -0.7687
  89   0.0000      -0.017656        -0.4805
  90   0.0000       0.005646         0.1536
  91   0.0000       0.026917         0.7325

MULLIKEN ATOMIC CHARGES
-----------------------
   0 C :   -0.307079
   1 C :   -0.012192
   2 O :   -0.221904
   3 C :    0.126637
   4 O :   -0.210013
   5 C :   -0.088114
   6 C :   -0.301348
   7 H :    0.161284
   8 C :    0.202549
   9 O :   -0.190670
  10 O :   -0.221291
  11 C :   -0.007314
  12 C :   -0.309600
  13 S :   -0.093794
  14 P :    0.612288
  15 S :   -0.322743
  16 O :   -0.350678
  17 C :   -0.102365
  18 O :   -0.390922
  19 C :   -0.100605
  20 H :    0.114278
  21 H :    0.127355
  22 H :    0.115932
  23 H :    0.103685
  24 H :    0.110487
  25 H :    0.127676
  26 H :    0.116592
  27 H :    0.122974
  28 H :    0.105907
  29 H :    0.116869
  30 H :    0.113944
  31 H :    0.130238
  32 H :    0.124050
  33 H :    0.130291
  34 H :    0.119417
  35 H :    0.115954
  36 H :    0.110559
  37 H :    0.121667
Sum of atomic charges:   -0.0000000

LOEWDIN ATOMIC CHARGES
----------------------
   0 C :   -0.356311
   1 C :   -0.110945
   2 O :   -0.054113
   3 C :    0.028637
   4 O :   -0.172193
   5 C :   -0.261764
   6 C :   -0.260137
   7 H :    0.156554
   8 C :    0.006471
   9 O :   -0.167042
  10 O :   -0.037769
  11 C :   -0.105312
  12 C :   -0.357102
  13 S :    0.105587
  14 P :    0.587675
  15 S :   -0.311696
  16 O :   -0.228846
  17 C :   -0.207758
  18 O :   -0.265728
  19 C :   -0.220197
  20 H :    0.131324
  21 H :    0.130558
  22 H :    0.125666
  23 H :    0.118377
  24 H :    0.120919
  25 H :    0.150307
  26 H :    0.130342
  27 H :    0.127273
  28 H :    0.120034
  29 H :    0.132944
  30 H :    0.124841
  31 H :    0.131651
  32 H :    0.113400
  33 H :    0.126282
  34 H :    0.113214
  35 H :    0.109458
  36 H :    0.104773
  37 H :    0.120626

  Mayer bond orders larger than 0.100000
B(  0-C ,  1-C ) :   1.1738 B(  0-C , 20-H ) :   0.9441 B(  0-C , 21-H ) :   0.9459
B(  0-C , 22-H ) :   0.9486 B(  1-C ,  2-O ) :   0.9164 B(  1-C , 23-H ) :   0.9370
B(  1-C , 24-H ) :   0.9146 B(  2-O ,  3-C ) :   1.2497 B(  3-C ,  4-O ) :   2.0286
B(  3-C ,  5-C ) :   0.9969 B(  5-C ,  6-C ) :   1.0646 B(  5-C , 25-H ) :   0.8624
B(  5-C , 26-H ) :   0.8841 B(  6-C ,  7-H ) :   0.8452 B(  6-C ,  8-C ) :   0.9081
B(  6-C , 13-S ) :   1.0110 B(  8-C ,  9-O ) :   2.0022 B(  8-C , 10-O ) :   1.2703
B( 10-O , 11-C ) :   0.9026 B( 11-C , 12-C ) :   1.1739 B( 11-C , 27-H ) :   0.9137
B( 11-C , 28-H ) :   0.9371 B( 12-C , 29-H ) :   0.9438 B( 12-C , 30-H ) :   0.9475
B( 12-C , 31-H ) :   0.9445 B( 13-S , 14-P ) :   0.9444 B( 13-S , 15-S ) :   0.1127
B( 14-P , 15-S ) :   1.5988 B( 14-P , 16-O ) :   1.1431 B( 14-P , 18-O ) :   1.0580
B( 16-O , 17-C ) :   0.9199 B( 17-C , 32-H ) :   0.9412 B( 17-C , 33-H ) :   0.9598
B( 17-C , 34-H ) :   0.9461 B( 18-O , 19-C ) :   0.9387 B( 19-C , 35-H ) :   0.9350
B( 19-C , 36-H ) :   0.9441 B( 19-C , 37-H ) :   0.9585

Dispersion correction           -0.051231896
FINAL SINGLE POINT ENERGY     -1979.019842765330

DIPOLE MOMENT
-------------

Method             : SCF
Type of density    : Electron Density
Multiplicity       :   1
Irrep              :   0
Energy             : -1979.1499624793768817 Eh
Relativity type    :
Basis              : AO
                                X                 Y                 Z
Electronic contribution:    -12.399887633       2.177728764       3.305006249
Nuclear contribution   :     12.924471178      -2.505547917      -3.705936735
                        -----------------------------------------
Total Dipole Moment    :      0.524583545      -0.327819153      -0.400930485
                        -----------------------------------------
Magnitude (a.u.)       :      0.737155714
Magnitude (Debye)      :      1.873700920

Rotational constants in cm-1:             0.011263             0.007398             0.005377
Rotational constants in MHz :           337.644905           221.773088           161.189668

                             ****ORCA TERMINATED NORMALLY****
TOTAL RUN TIME: 0 days 0 hours 0 minutes 38 seconds 183 msec
