                         Program Version 6.0.0  -   RELEASE  -
|  1> ! r2scan-3c def2/J RI DEFGRID2 scfconv6 printgap
|  2> %output
|  3>     printlevel normal
|  4> end
|  5> * xyz 0 1
|  6> C 1.1976510372 -1.2092156007 -0.0001529854
|  7> C 1.8764665385 -5.6519e-06 -0.0001726643
|  8> C 1.1976604675 1.2092099841 0.0001328569
|  9> C -0.1880078479 1.2006401195 0.0003491468
| 10> C -0.8958639303 4.6294e-06 0.0001308587
| 11> C -0.1880167984 -1.2006356243 -0.0001192167
| 12> Cl -1.0466767402 -2.6924606477 3.1788e-06
| 13> Cl -2.6197107534 2.0689e-06 1.48296e-05
| 14> Cl -1.0466563698 2.6924706056 -0.0001008271
| 15> Cl 3.5983026957 -1.08265e-05 3.43256e-05
| 16> H 1.7312303065 -2.1448826779 7.7992e-05
| 17> H 1.7312439742 2.144866003 -0.000374168
| 18> *
| 19>
| 20>                          ****END OF INPUT****

CARTESIAN COORDINATES (ANGSTROEM)
---------------------------------
  C      1.197651   -1.209216   -0.000153
  C      1.876467   -0.000006   -0.000173
  C      1.197660    1.209210    0.000133
  C     -0.188008    1.200640    0.000349
  C     -0.895864    0.000005    0.000131
  C     -0.188017   -1.200636   -0.000119
  Cl    -1.046677   -2.692461    0.000003
  Cl    -2.619711    0.000002    0.000015
  Cl    -1.046656    2.692471   -0.000101
  Cl     3.598303   -0.000011    0.000034
  H      1.731230   -2.144883    0.000078
  H      1.731244    2.144866   -0.000374

 Total Charge           Charge          ....    0
 Multiplicity           Mult            ....    1
 Number of Electrons    NEL             ....  106
 Basis Dimension        Dim             ....  232

ORBITAL ENERGIES
----------------

  NO   OCC          E(Eh)            E(eV)
   0   2.0000    -101.243321     -2754.9708
   1   2.0000    -101.243319     -2754.9708
   2   2.0000    -101.242009     -2754.9351
   3   2.0000    -101.241534     -2754.9222
   4   2.0000     -10.136992      -275.8416
   5   2.0000     -10.136966      -275.8409
   6   2.0000     -10.133881      -275.7569
   7   2.0000     -10.131680      -275.6970
   8   2.0000     -10.079257      -274.2705
   9   2.0000     -10.079250      -274.2703
  10   2.0000      -9.399133      -255.7634
  11   2.0000      -9.399131      -255.7634
  12   2.0000      -9.397992      -255.7324
  13   2.0000      -9.397130      -255.7089
  14   2.0000      -7.145674      -194.4437
  15   2.0000      -7.145674      -194.4437
  16   2.0000      -7.144341      -194.4074
  17   2.0000      -7.143853      -194.3941
  18   2.0000      -7.135407      -194.1643
  19   2.0000      -7.135407      -194.1643
  20   2.0000      -7.134586      -194.1420
  21   2.0000      -7.134586      -194.1419
  22   2.0000      -7.134204      -194.1316
  23   2.0000      -7.133683      -194.1174
  24   2.0000      -7.133412      -194.1100
  25   2.0000      -7.132417      -194.0829
  26   2.0000      -0.922823       -25.1113
  27   2.0000      -0.874797       -23.8044
  28   2.0000      -0.868816       -23.6417
  29   2.0000      -0.832468       -22.6526
  30   2.0000      -0.798527       -21.7290
  31   2.0000      -0.733448       -19.9581
  32   2.0000      -0.710801       -19.3419
  33   2.0000      -0.610903       -16.6235
  34   2.0000      -0.594329       -16.1725
  35   2.0000      -0.513552       -13.9745
  36   2.0000      -0.506142       -13.7728
  37   2.0000      -0.467406       -12.7188
  38   2.0000      -0.441242       -12.0068
  39   2.0000      -0.441080       -12.0024
  40   2.0000      -0.431237       -11.7345
  41   2.0000      -0.393611       -10.7107
  42   2.0000      -0.388828       -10.5806
  43   2.0000      -0.371733       -10.1154
  44   2.0000      -0.363943        -9.9034
  45   2.0000      -0.328147        -8.9293
  46   2.0000      -0.323037        -8.7903
  47   2.0000      -0.313079        -8.5193
  48   2.0000      -0.307311        -8.3624
  49   2.0000      -0.297928        -8.1070
  50   2.0000      -0.286495        -7.7959
  51   2.0000      -0.253847        -6.9075
  52   2.0000      -0.241110        -6.5609
  53   0.0000      -0.075360        -2.0506
  54   0.0000      -0.071856        -1.9553
  55   0.0000      -0.054973        -1.4959
  56   0.0000       0.001771         0.0482
  57   0.0000       0.016070         0.4373

MULLIKEN ATOMIC CHARGES
-----------------------
   0 C :   -0.323328
   1 C :    0.270526
   2 C :   -0.323322
   3 C :    0.196131
   4 C :   -0.015081
   5 C :    0.196136
   6 Cl:   -0.087261
   7 Cl:   -0.072139
   8 Cl:   -0.087262
   9 Cl:   -0.113412
  10 H :    0.179507
  11 H :    0.179507
Sum of atomic charges:   -0.0000000

LOEWDIN ATOMIC CHARGES
----------------------
   0 C :   -0.178775
   1 C :   -0.161928
   2 C :   -0.178774
   3 C :   -0.171113
   4 C :   -0.203008
   5 C :   -0.171113
   6 Cl:    0.173460
   7 Cl:    0.177184
   8 Cl:    0.173460
   9 Cl:    0.157197
  10 H :    0.191705
  11 H :    0.191704

  Mayer bond orders larger than 0.100000
B(  0-C ,  1-C ) :   1.3617 B(  0-C ,  5-C ) :   1.3399 B(  0-C , 10-H ) :   0.9261
B(  1-C ,  2-C ) :   1.3617 B(  1-C ,  9-Cl) :   0.9243 B(  2-C ,  3-C ) :   1.3399
B(  2-C , 11-H ) :   0.9261 B(  3-C ,  4-C ) :   1.2189 B(  3-C ,  8-Cl) :   1.0537
B(  4-C ,  5-C ) :   1.2189 B(  4-C ,  7-Cl) :   1.2118 B(  5-C ,  6-Cl) :   1.0537

Dispersion correction           -0.006389049
FINAL SINGLE POINT ENERGY     -2070.493507175483

DIPOLE MOMENT
-------------

Method             : SCF
Type of density    : Electron Density
Multiplicity       :   1
Irrep              :   0
Energy             : -2070.4947257640897078 Eh
Relativity type    :
Basis              : AO
                                X                 Y                 Z
Electronic contribution:     -4.387067089       0.000015896       0.000135254
Nuclear contribution   :      4.744640619      -0.000017255      -0.000212777
                        -----------------------------------------
Total Dipole Moment    :      0.357573530      -0.000001359      -0.000077523
                        -----------------------------------------
Magnitude (a.u.)       :      0.357573538
Magnitude (Debye)      :      0.908879704

Rotational constants in cm-1:             0.028425             0.019303             0.011496
Rotational constants in MHz :           852.167487           578.696948           344.649510

                             ****ORCA TERMINATED NORMALLY****
TOTAL RUN TIME: 0 days 0 hours 0 minutes 38 seconds 694 msec
