                         Program Version 6.0.0  -   RELEASE  -
|  1> ! r2scan-3c def2/J RI DEFGRID2 scfconv6 printgap
|  2> %output
|  3>     printlevel normal
|  4> end
|  5> %cpcm
|  6>     smd true
|  7>     smdsolvent "water"
|  8> end
|  9> * xyz 0 1
| 10> C 1.1976510372 -1.2092156007 -0.0001529854
| 11> C 1.8764665385 -5.6519e-06 -0.0001726643
| 12> C 1.1976604675 1.2092099841 0.0001328569
| 13> C -0.1880078479 1.2006401195 0.0003491468
| 14> C -0.8958639303 4.6294e-06 0.0001308587
| 15> C -0.1880167984 -1.2006356243 -0.0001192167
| 16> Cl -1.0466767402 -2.6924606477 3.1788e-06
| 17> Cl -2.6197107534 2.0689e-06 1.48296e-05
| 18> Cl -1.0466563698 2.6924706056 -0.0001008271
| 19> Cl 3.5983026957 -1.08265e-05 3.43256e-05
| 20> H 1.7312303065 -2.1448826779 7.7992e-05
| 21> H 1.7312439742 2.144866003 -0.000374168
| 22> *
| 23>
| 24>                          ****END OF INPUT****

CARTESIAN COORDINATES (ANGSTROEM)
---------------------------------
  C      1.197651   -1.209216   -0.000153
  C      1.876467   -0.000006   -0.000173
  C      1.197660    1.209210    0.000133
  C     -0.188008    1.200640    0.000349
  C     -0.895864    0.000005    0.000131
  C     -0.188017   -1.200636   -0.000119
  Cl    -1.046677   -2.692461    0.000003
  Cl    -2.619711    0.000002    0.000015
  Cl    -1.046656    2.692471   -0.000101
  Cl     3.598303   -0.000011    0.000034
  H      1.731230   -2.144883    0.000078
  H      1.731244    2.144866   -0.000374

 Total Charge           Charge          ....    0
 Multiplicity           Mult            ....    1
 Number of Electrons    NEL             ....  106
 Basis Dimension        Dim             ....  232

ORBITAL ENERGIES
----------------

  NO   OCC          E(Eh)            E(eV)
   0   2.0000    -101.240571     -2754.8960
   1   2.0000    -101.239761     -2754.8740
   2   2.0000    -101.239760     -2754.8739
   3   2.0000    -101.235906     -2754.7690
   4   2.0000     -10.129967      -275.6504
   5   2.0000     -10.129910      -275.6489
   6   2.0000     -10.128448      -275.6091
   7   2.0000     -10.123017      -275.4613
   8   2.0000     -10.069227      -273.9976
   9   2.0000     -10.069220      -273.9974
  10   2.0000      -9.396297      -255.6862
  11   2.0000      -9.395679      -255.6694
  12   2.0000      -9.395677      -255.6694
  13   2.0000      -9.391970      -255.5685
  14   2.0000      -7.142889      -194.3679
  15   2.0000      -7.142130      -194.3472
  16   2.0000      -7.142129      -194.3472
  17   2.0000      -7.138247      -194.2416
  18   2.0000      -7.132608      -194.0881
  19   2.0000      -7.131981      -194.0711
  20   2.0000      -7.131981      -194.0711
  21   2.0000      -7.131660      -194.0623
  22   2.0000      -7.131173      -194.0491
  23   2.0000      -7.131173      -194.0491
  24   2.0000      -7.128245      -193.9694
  25   2.0000      -7.127656      -193.9534
  26   2.0000      -0.916953       -24.9516
  27   2.0000      -0.868601       -23.6358
  28   2.0000      -0.864176       -23.5154
  29   2.0000      -0.829848       -22.5813
  30   2.0000      -0.792680       -21.5699
  31   2.0000      -0.725110       -19.7313
  32   2.0000      -0.704622       -19.1738
  33   2.0000      -0.603571       -16.4240
  34   2.0000      -0.586772       -15.9669
  35   2.0000      -0.505838       -13.7646
  36   2.0000      -0.498695       -13.5702
  37   2.0000      -0.460962       -12.5434
  38   2.0000      -0.435139       -11.8407
  39   2.0000      -0.433544       -11.7973
  40   2.0000      -0.424834       -11.5603
  41   2.0000      -0.386798       -10.5253
  42   2.0000      -0.378602       -10.3023
  43   2.0000      -0.366259        -9.9664
  44   2.0000      -0.359601        -9.7852
  45   2.0000      -0.326611        -8.8875
  46   2.0000      -0.320440        -8.7196
  47   2.0000      -0.309928        -8.4336
  48   2.0000      -0.301875        -8.2144
  49   2.0000      -0.293430        -7.9846
  50   2.0000      -0.284497        -7.7416
  51   2.0000      -0.246890        -6.7182
  52   2.0000      -0.235910        -6.4194
  53   0.0000      -0.066981        -1.8227
  54   0.0000      -0.065032        -1.7696
  55   0.0000      -0.049884        -1.3574
  56   0.0000       0.007468         0.2032
  57   0.0000       0.021456         0.5838

MULLIKEN ATOMIC CHARGES
-----------------------
   0 C :   -0.300283
   1 C :    0.238917
   2 C :   -0.300269
   3 C :    0.178805
   4 C :   -0.002315
   5 C :    0.178819
   6 Cl:   -0.102739
   7 Cl:   -0.092817
   8 Cl:   -0.102738
   9 Cl:   -0.124338
  10 H :    0.214479
  11 H :    0.214479
Sum of atomic charges:   -0.0000000

LOEWDIN ATOMIC CHARGES
----------------------
   0 C :   -0.168142
   1 C :   -0.162636
   2 C :   -0.168141
   3 C :   -0.172508
   4 C :   -0.202763
   5 C :   -0.172508
   6 Cl:    0.162697
   7 Cl:    0.163058
   8 Cl:    0.162697
   9 Cl:    0.149420
  10 H :    0.204414
  11 H :    0.204412

  Mayer bond orders larger than 0.100000
B(  0-C ,  1-C ) :   1.3655 B(  0-C ,  5-C ) :   1.3567 B(  0-C , 10-H ) :   0.9068
B(  1-C ,  2-C ) :   1.3656 B(  1-C ,  9-Cl) :   0.9331 B(  2-C ,  3-C ) :   1.3568
B(  2-C , 11-H ) :   0.9068 B(  3-C ,  4-C ) :   1.2118 B(  3-C ,  8-Cl) :   1.0503
B(  4-C ,  5-C ) :   1.2118 B(  4-C ,  7-Cl) :   1.1852 B(  5-C ,  6-Cl) :   1.0503

Dispersion correction           -0.006389049
FINAL SINGLE POINT ENERGY     -2070.493573593631

DIPOLE MOMENT
-------------

Method             : SCF
Type of density    : Electron Density
Multiplicity       :   1
Irrep              :   0
Energy             : -2070.4947921822372336 Eh
Relativity type    :
Basis              : AO
                                X                 Y                 Z
Electronic contribution:     -4.122599425       0.000015170       0.000103616
Nuclear contribution   :      4.744640619      -0.000017255      -0.000212777
                        -----------------------------------------
Total Dipole Moment    :      0.622041194      -0.000002086      -0.000109161
                        -----------------------------------------
Magnitude (a.u.)       :      0.622041204
Magnitude (Debye)      :      1.581103088

Rotational constants in cm-1:             0.028425             0.019303             0.011496
Rotational constants in MHz :           852.167487           578.696948           344.649510

                             ****ORCA TERMINATED NORMALLY****
TOTAL RUN TIME: 0 days 0 hours 0 minutes 42 seconds 211 msec
