                         Program Version 6.0.0  -   RELEASE  -
|  1> ! wb97x-v def2-tzvp def2/J RIJCOSX DEFGRID2 scfconv7 GCP(DFT/TZ) printgap
|  2> %output
|  3>     printlevel normal
|  4> end
|  5> * xyz 0 1
|  6> C -2.9265804733134595 -0.37490547958867726 0.0014453325201652096
|  7> C -2.6841277481996872 1.0164972942069788 0.002410471961833315
|  8> C -1.3981092215199207 1.5052402415262576 0.0007033989929508775
|  9> C -0.28486309003834176 0.6250781130845147 -0.0030772677557501303
| 10> C 1.0457119728309803 1.0974836904243523 -0.004918853069001208
| 11> C 2.116927734934019 0.21810268604552233 -0.012483680818983555
| 12> C 1.8615902703936484 -1.1819595675810566 -0.0074149705552465795
| 13> C 0.5786788836006459 -1.662524695161612 -0.001117545506144895
| 14> C -0.5349315305058469 -0.7856558462964757 -0.0018585785213712331
| 15> C -1.8685798722120017 -1.2556051906341235 0.00023889689488767918
| 16> N 3.4279285892421996 0.6641403961699623 -0.08507806353856111
| 17> H -3.9468926400777 -0.7445978666995261 0.0018892270315070438
| 18> H -3.5233587497913312 1.705444322502389 0.004012646021625434
| 19> H -1.2171933234804249 2.576654614621944 0.0012648485539675316
| 20> H 1.2252898866129387 2.169811788887418 -0.0030947044837056257
| 21> H 2.7043411543885054 -1.8678881362071227 -0.008672161833561802
| 22> H 0.40105315022392807 -2.7344521790876235 0.005540502932769372
| 23> H -2.041987072973196 -2.328485173228096 0.00037991618968916124
| 24> H 4.1151714716931265 0.02195448800241285 0.28244111489081547
| 25> H 3.574518343172461 1.6125501966474052 0.22958775367567524
| 26> *
| 27>
| 28>                          ****END OF INPUT****

CARTESIAN COORDINATES (ANGSTROEM)
---------------------------------
  C     -2.926580   -0.374905    0.001445
  C     -2.684128    1.016497    0.002410
  C     -1.398109    1.505240    0.000703
  C     -0.284863    0.625078   -0.003077
  C      1.045712    1.097484   -0.004919
  C      2.116928    0.218103   -0.012484
  C      1.861590   -1.181960   -0.007415
  C      0.578679   -1.662525   -0.001118
  C     -0.534932   -0.785656   -0.001859
  C     -1.868580   -1.255605    0.000239
  N      3.427929    0.664140   -0.085078
  H     -3.946893   -0.744598    0.001889
  H     -3.523359    1.705444    0.004013
  H     -1.217193    2.576655    0.001265
  H      1.225290    2.169812   -0.003095
  H      2.704341   -1.867888   -0.008672
  H      0.401053   -2.734452    0.005541
  H     -2.041987   -2.328485    0.000380
  H      4.115171    0.021954    0.282441
  H      3.574518    1.612550    0.229588

 Total Charge           Charge          ....    0
 Multiplicity           Mult            ....    1
 Number of Electrons    NEL             ....   76
 Basis Dimension        Dim             ....  395

ORBITAL ENERGIES
----------------

  NO   OCC          E(Eh)            E(eV)
   0   2.0000     -16.534225      -449.9191
   1   2.0000     -12.093567      -329.0827
   2   2.0000     -12.058174      -328.1196
   3   2.0000     -12.054937      -328.0315
   4   2.0000     -12.051118      -327.9276
   5   2.0000     -12.049921      -327.8950
   6   2.0000     -12.048155      -327.8470
   7   2.0000     -12.047779      -327.8367
   8   2.0000     -12.044516      -327.7479
   9   2.0000     -12.042727      -327.6993
  10   2.0000     -12.038952      -327.5965
  11   2.0000      -1.494848       -40.6769
  12   2.0000      -1.392810       -37.9003
  13   2.0000      -1.337478       -36.3946
  14   2.0000      -1.296515       -35.2800
  15   2.0000      -1.261787       -34.3350
  16   2.0000      -1.240866       -33.7657
  17   2.0000      -1.136519       -30.9263
  18   2.0000      -1.122940       -30.5568
  19   2.0000      -1.086908       -29.5763
  20   2.0000      -1.031011       -28.0552
  21   2.0000      -1.011834       -27.5334
  22   2.0000      -0.981581       -26.7102
  23   2.0000      -0.954865       -25.9832
  24   2.0000      -0.945067       -25.7166
  25   2.0000      -0.901014       -24.5178
  26   2.0000      -0.897473       -24.4215
  27   2.0000      -0.882792       -24.0220
  28   2.0000      -0.870672       -23.6922
  29   2.0000      -0.836432       -22.7605
  30   2.0000      -0.826936       -22.5021
  31   2.0000      -0.820180       -22.3182
  32   2.0000      -0.788810       -21.4646
  33   2.0000      -0.780259       -21.2319
  34   2.0000      -0.708786       -19.2870
  35   2.0000      -0.673547       -18.3281
  36   2.0000      -0.617091       -16.7919
  37   2.0000      -0.589482       -16.0406
  38   0.0000      -0.279294        -7.6000
  39   0.0000      -0.252114        -6.8604
  40   0.0000      -0.192742        -5.2448
  41   0.0000      -0.126916        -3.4536
  42   0.0000      -0.076271        -2.0754

MULLIKEN ATOMIC CHARGES
-----------------------
   0 C :   -0.127422
   1 C :   -0.098940
   2 C :   -0.230400
   3 C :    0.180487
   4 C :   -0.319342
   5 C :    0.301354
   6 C :   -0.221018
   7 C :   -0.189828
   8 C :    0.132222
   9 C :   -0.197624
  10 N :   -0.445413
  11 H :    0.113616
  12 H :    0.113782
  13 H :    0.105560
  14 H :    0.100496
  15 H :    0.107676
  16 H :    0.111821
  17 H :    0.109680
  18 H :    0.226432
  19 H :    0.226861
Sum of atomic charges:   -0.0000000

LOEWDIN ATOMIC CHARGES
----------------------
   0 C :   -0.152827
   1 C :   -0.141419
   2 C :   -0.108060
   3 C :   -0.092150
   4 C :   -0.109976
   5 C :   -0.240092
   6 C :   -0.126826
   7 C :   -0.095368
   8 C :   -0.103673
   9 C :   -0.102908
  10 N :   -0.046587
  11 H :    0.139850
  12 H :    0.141046
  13 H :    0.142850
  14 H :    0.141829
  15 H :    0.141034
  16 H :    0.146354
  17 H :    0.144095
  18 H :    0.160993
  19 H :    0.161835

  Mayer bond orders larger than 0.100000
B(  0-C ,  1-C ) :   1.2687 B(  0-C ,  9-C ) :   1.5692 B(  0-C , 11-H ) :   0.9774
B(  1-C ,  2-C ) :   1.5738 B(  1-C , 12-H ) :   0.9766 B(  2-C ,  3-C ) :   1.2094
B(  2-C , 13-H ) :   0.9850 B(  3-C ,  4-C ) :   1.3063 B(  3-C ,  8-C ) :   1.2654
B(  4-C ,  5-C ) :   1.5095 B(  4-C , 14-H ) :   0.9480 B(  5-C ,  6-C ) :   1.2232
B(  5-C , 10-N ) :   1.0710 B(  6-C ,  7-C ) :   1.6411 B(  6-C , 15-H ) :   0.9636
B(  7-C ,  8-C ) :   1.2087 B(  7-C , 16-H ) :   0.9783 B(  8-C ,  9-C ) :   1.2213
B(  9-C , 17-H ) :   0.9819 B( 10-N , 18-H ) :   0.9273 B( 10-N , 19-H ) :   0.9297

FINAL SINGLE POINT ENERGY      -441.267254910879

DIPOLE MOMENT
-------------

Method             : SCF
Type of density    : Electron Density
Multiplicity       :   1
Irrep              :   0
Energy             :  -441.2774912136785588 Eh
Relativity type    :
Basis              : AO
                                X                 Y                 Z
Electronic contribution:     -0.581814787      -0.325849947      -0.163768925
Nuclear contribution   :      1.221756980       0.381620798       0.539406248
                        -----------------------------------------
Total Dipole Moment    :      0.639942194       0.055770851       0.375637322
                        -----------------------------------------
Magnitude (a.u.)       :      0.744136948
Magnitude (Debye)      :      1.891445805

Rotational constants in cm-1:             0.094793             0.027655             0.021421
Rotational constants in MHz :          2841.809280           829.072197           642.180507

                             ****ORCA TERMINATED NORMALLY****
TOTAL RUN TIME: 0 days 0 hours 3 minutes 58 seconds 586 msec
