                         Program Version 6.0.0  -   RELEASE  -
|  1> ! wb97x-v def2-tzvp def2/J RIJCOSX DEFGRID2 scfconv7 GCP(DFT/TZ) printgap
|  2> %output
|  3>     printlevel normal
|  4> end
|  5> %cpcm
|  6>     smd true
|  7>     smdsolvent "water"
|  8> end
|  9> * xyz 0 1
| 10> C -2.9265804733134595 -0.37490547958867726 0.0014453325201652096
| 11> C -2.6841277481996872 1.0164972942069788 0.002410471961833315
| 12> C -1.3981092215199207 1.5052402415262576 0.0007033989929508775
| 13> C -0.28486309003834176 0.6250781130845147 -0.0030772677557501303
| 14> C 1.0457119728309803 1.0974836904243523 -0.004918853069001208
| 15> C 2.116927734934019 0.21810268604552233 -0.012483680818983555
| 16> C 1.8615902703936484 -1.1819595675810566 -0.0074149705552465795
| 17> C 0.5786788836006459 -1.662524695161612 -0.001117545506144895
| 18> C -0.5349315305058469 -0.7856558462964757 -0.0018585785213712331
| 19> C -1.8685798722120017 -1.2556051906341235 0.00023889689488767918
| 20> N 3.4279285892421996 0.6641403961699623 -0.08507806353856111
| 21> H -3.9468926400777 -0.7445978666995261 0.0018892270315070438
| 22> H -3.5233587497913312 1.705444322502389 0.004012646021625434
| 23> H -1.2171933234804249 2.576654614621944 0.0012648485539675316
| 24> H 1.2252898866129387 2.169811788887418 -0.0030947044837056257
| 25> H 2.7043411543885054 -1.8678881362071227 -0.008672161833561802
| 26> H 0.40105315022392807 -2.7344521790876235 0.005540502932769372
| 27> H -2.041987072973196 -2.328485173228096 0.00037991618968916124
| 28> H 4.1151714716931265 0.02195448800241285 0.28244111489081547
| 29> H 3.574518343172461 1.6125501966474052 0.22958775367567524
| 30> *
| 31>
| 32>                          ****END OF INPUT****

CARTESIAN COORDINATES (ANGSTROEM)
---------------------------------
  C     -2.926580   -0.374905    0.001445
  C     -2.684128    1.016497    0.002410
  C     -1.398109    1.505240    0.000703
  C     -0.284863    0.625078   -0.003077
  C      1.045712    1.097484   -0.004919
  C      2.116928    0.218103   -0.012484
  C      1.861590   -1.181960   -0.007415
  C      0.578679   -1.662525   -0.001118
  C     -0.534932   -0.785656   -0.001859
  C     -1.868580   -1.255605    0.000239
  N      3.427929    0.664140   -0.085078
  H     -3.946893   -0.744598    0.001889
  H     -3.523359    1.705444    0.004013
  H     -1.217193    2.576655    0.001265
  H      1.225290    2.169812   -0.003095
  H      2.704341   -1.867888   -0.008672
  H      0.401053   -2.734452    0.005541
  H     -2.041987   -2.328485    0.000380
  H      4.115171    0.021954    0.282441
  H      3.574518    1.612550    0.229588

 Total Charge           Charge          ....    0
 Multiplicity           Mult            ....    1
 Number of Electrons    NEL             ....   76
 Basis Dimension        Dim             ....  395

ORBITAL ENERGIES
----------------

  NO   OCC          E(Eh)            E(eV)
   0   2.0000     -16.522443      -449.5985
   1   2.0000     -12.092371      -329.0501
   2   2.0000     -12.060914      -328.1942
   3   2.0000     -12.054258      -328.0130
   4   2.0000     -12.052567      -327.9670
   5   2.0000     -12.049640      -327.8874
   6   2.0000     -12.049160      -327.8743
   7   2.0000     -12.047380      -327.8259
   8   2.0000     -12.045823      -327.7835
   9   2.0000     -12.043937      -327.7322
  10   2.0000     -12.036700      -327.5353
  11   2.0000      -1.485373       -40.4191
  12   2.0000      -1.395475       -37.9728
  13   2.0000      -1.338489       -36.4221
  14   2.0000      -1.298126       -35.3238
  15   2.0000      -1.262810       -34.3628
  16   2.0000      -1.241331       -33.7783
  17   2.0000      -1.135630       -30.9021
  18   2.0000      -1.122357       -30.5409
  19   2.0000      -1.087078       -29.5809
  20   2.0000      -1.026336       -27.9280
  21   2.0000      -1.004996       -27.3473
  22   2.0000      -0.980493       -26.6806
  23   2.0000      -0.949643       -25.8411
  24   2.0000      -0.945296       -25.7228
  25   2.0000      -0.900454       -24.5026
  26   2.0000      -0.894833       -24.3497
  27   2.0000      -0.879867       -23.9424
  28   2.0000      -0.869685       -23.6653
  29   2.0000      -0.834963       -22.7205
  30   2.0000      -0.823444       -22.4070
  31   2.0000      -0.818980       -22.2856
  32   2.0000      -0.787731       -21.4352
  33   2.0000      -0.782584       -21.2952
  34   2.0000      -0.710188       -19.3252
  35   2.0000      -0.676964       -18.4211
  36   2.0000      -0.619778       -16.8650
  37   2.0000      -0.591413       -16.0932
  38   0.0000      -0.281574        -7.6620
  39   0.0000      -0.255457        -6.9513
  40   0.0000      -0.195878        -5.3301
  41   0.0000      -0.128226        -3.4892
  42   0.0000      -0.068521        -1.8645

MULLIKEN ATOMIC CHARGES
-----------------------
   0 C :   -0.177470
   1 C :   -0.139876
   2 C :   -0.277325
   3 C :    0.176483
   4 C :   -0.393242
   5 C :    0.269692
   6 C :   -0.270671
   7 C :   -0.215669
   8 C :    0.102280
   9 C :   -0.237211
  10 N :   -0.492965
  11 H :    0.158949
  12 H :    0.159257
  13 H :    0.154560
  14 H :    0.153732
  15 H :    0.160093
  16 H :    0.159165
  17 H :    0.158023
  18 H :    0.276959
  19 H :    0.275235
Sum of atomic charges:   -0.0000000

LOEWDIN ATOMIC CHARGES
----------------------
   0 C :   -0.165775
   1 C :   -0.152501
   2 C :   -0.118560
   3 C :   -0.109411
   4 C :   -0.119751
   5 C :   -0.249605
   6 C :   -0.128203
   7 C :   -0.103657
   8 C :   -0.120102
   9 C :   -0.111546
  10 N :   -0.049982
  11 H :    0.149101
  12 H :    0.150738
  13 H :    0.153581
  14 H :    0.154813
  15 H :    0.154734
  16 H :    0.157471
  17 H :    0.155220
  18 H :    0.176821
  19 H :    0.176613

  Mayer bond orders larger than 0.100000
B(  0-C ,  1-C ) :   1.2497 B(  0-C ,  9-C ) :   1.5462 B(  0-C , 11-H ) :   0.9813
B(  1-C ,  2-C ) :   1.5531 B(  1-C , 12-H ) :   0.9794 B(  2-C ,  3-C ) :   1.1959
B(  2-C , 13-H ) :   0.9901 B(  3-C ,  4-C ) :   1.2612 B(  3-C ,  8-C ) :   1.2296
B(  4-C ,  5-C ) :   1.4886 B(  4-C , 14-H ) :   0.9771 B(  5-C ,  6-C ) :   1.2072
B(  5-C , 10-N ) :   1.1294 B(  6-C ,  7-C ) :   1.6054 B(  6-C , 15-H ) :   0.9769
B(  7-C ,  8-C ) :   1.1905 B(  7-C , 16-H ) :   0.9854 B(  8-C ,  9-C ) :   1.2131
B(  9-C , 17-H ) :   0.9868 B( 10-N , 18-H ) :   0.9061 B( 10-N , 19-H ) :   0.9085

FINAL SINGLE POINT ENERGY      -441.277737787605

DIPOLE MOMENT
-------------

Method             : SCF
Type of density    : Electron Density
Multiplicity       :   1
Irrep              :   0
Energy             :  -441.2879740904054984 Eh
Relativity type    :
Basis              : AO
                                X                 Y                 Z
Electronic contribution:     -0.290777784      -0.332552365      -0.029825566
Nuclear contribution   :      1.221756980       0.381620798       0.539406248
                        -----------------------------------------
Total Dipole Moment    :      0.930979196       0.049068433       0.509580682
                        -----------------------------------------
Magnitude (a.u.)       :      1.062451150
Magnitude (Debye)      :      2.700536207

Rotational constants in cm-1:             0.094793             0.027655             0.021421
Rotational constants in MHz :          2841.809280           829.072197           642.180507

                             ****ORCA TERMINATED NORMALLY****
TOTAL RUN TIME: 0 days 0 hours 3 minutes 58 seconds 8 msec
