                         Program Version 6.0.0  -   RELEASE  -
|  1> ! pbe def2-sv(p) def2/J RI DEFGRID1 loosescf d4 GCP(DFT/SV(P)) printgap
|  2> %output
|  3>     printlevel normal
|  4> end
|  5> * xyz 0 1
|  6> C 4.3781398167 0.3009807115 -2.3299830069
|  7> C 4.4123582989 0.8860939197 -0.9332561141
|  8> O 3.7294336506 0.0490245387 0.0155944698
|  9> P 2.1486531804 -0.1235289883 0.0175026746
| 10> S 1.1827149248 1.5416605255 -0.3920755709
| 11> O 1.9159747328 -0.8115618042 1.4250432428
| 12> C 2.3592344699 -0.268999641 2.6878758437
| 13> C 1.38972992 0.7660169767 3.2214479956
| 14> S 1.770447954 -1.7809576026 -1.2239281481
| 15> C -0.0173357583 -1.5920344193 -1.4328089929
| 16> S -0.9314768395 -1.7037167734 0.1409276654
| 17> P -2.0584125936 0.0810750982 0.0496905508
| 18> S -2.143059574 0.9601089108 -1.7076280432
| 19> O -1.4542563628 0.8274029378 1.3087424033
| 20> C -2.0919257092 1.9366834453 1.9789200533
| 21> C -2.1520577142 3.1757512576 1.109271018
| 22> O -3.4965590048 -0.303898371 0.6199096349
| 23> C -4.5702236494 -0.7428958044 -0.2274907907
| 24> C -4.3077928228 -2.1145949085 -0.8145898049
| 25> H 4.7330719336 -0.7262891616 -2.3175394645
| 26> H 3.3588966882 0.3141359874 -2.7139166073
| 27> H 5.0080798749 0.8949723027 -2.984271215
| 28> H 3.9465598012 1.8769867414 -0.9185946727
| 29> H 5.4300317022 0.946207434 -0.5451325468
| 30> H 2.4055036461 -1.1433449375 3.3396252479
| 31> H 3.3597323679 0.1505931979 2.5594522043
| 32> H 0.3936949835 0.3352884212 3.291222132
| 33> H 1.7144651853 1.0920811915 4.2045172675
| 34> H 1.349509797 1.6249483511 2.55385798
| 35> H -0.3220485196 -2.4160985836 -2.0730256862
| 36> H -0.2460966996 -0.6279897808 -1.8977723265
| 37> H -3.0907772985 1.6236512329 2.2920878167
| 38> H -1.4607528801 2.1010209269 2.8542182536
| 39> H -2.8279057948 3.020817653 0.2698927094
| 40> H -2.5042076972 4.0158116054 1.6992382393
| 41> H -1.1633314852 3.4004562429 0.7131420903
| 42> H -5.440029899 -0.7447382063 0.4308534504
| 43> H -4.7048370122 -0.0046916375 -1.0246950729
| 44> H -3.478494242 -2.0616651471 -1.5186085685
| 45> H -4.0567882576 -2.8213368669 -0.02782019
| 46> H -5.1940865604 -2.4557050813 -1.3396585119
| 47> *
| 48>
| 49>                          ****END OF INPUT****

CARTESIAN COORDINATES (ANGSTROEM)
---------------------------------
  C      4.378140    0.300981   -2.329983
  C      4.412358    0.886094   -0.933256
  O      3.729434    0.049025    0.015594
  P      2.148653   -0.123529    0.017503
  S      1.182715    1.541661   -0.392076
  O      1.915975   -0.811562    1.425043
  C      2.359234   -0.269000    2.687876
  C      1.389730    0.766017    3.221448
  S      1.770448   -1.780958   -1.223928
  C     -0.017336   -1.592034   -1.432809
  S     -0.931477   -1.703717    0.140928
  P     -2.058413    0.081075    0.049691
  S     -2.143060    0.960109   -1.707628
  O     -1.454256    0.827403    1.308742
  C     -2.091926    1.936683    1.978920
  C     -2.152058    3.175751    1.109271
  O     -3.496559   -0.303898    0.619910
  C     -4.570224   -0.742896   -0.227491
  C     -4.307793   -2.114595   -0.814590
  H      4.733072   -0.726289   -2.317539
  H      3.358897    0.314136   -2.713917
  H      5.008080    0.894972   -2.984271
  H      3.946560    1.876987   -0.918595
  H      5.430032    0.946207   -0.545133
  H      2.405504   -1.143345    3.339625
  H      3.359732    0.150593    2.559452
  H      0.393695    0.335288    3.291222
  H      1.714465    1.092081    4.204517
  H      1.349510    1.624948    2.553858
  H     -0.322049   -2.416099   -2.073026
  H     -0.246097   -0.627990   -1.897772
  H     -3.090777    1.623651    2.292088
  H     -1.460753    2.101021    2.854218
  H     -2.827906    3.020818    0.269893
  H     -2.504208    4.015812    1.699238
  H     -1.163331    3.400456    0.713142
  H     -5.440030   -0.744738    0.430853
  H     -4.704837   -0.004692   -1.024695
  H     -3.478494   -2.061665   -1.518609
  H     -4.056788   -2.821337   -0.027820
  H     -5.194087   -2.455705   -1.339659

 Total Charge           Charge          ....    0
 Multiplicity           Mult            ....    1
 Number of Electrons    NEL             ....  202
 Basis Dimension        Dim             ....  334

ORBITAL ENERGIES
----------------

  NO   OCC          E(Eh)            E(eV)
   0   2.0000     -88.039671     -2395.6812
   1   2.0000     -88.038122     -2395.6391
   2   2.0000     -87.983008     -2394.1394
   3   2.0000     -87.980019     -2394.0580
   4   2.0000     -76.422991     -2079.5753
   5   2.0000     -76.422484     -2079.5615
   6   2.0000     -18.792201      -511.3618
   7   2.0000     -18.789604      -511.2911
   8   2.0000     -18.784899      -511.1631
   9   2.0000     -18.782618      -511.1010
  10   2.0000      -9.950883      -270.7773
  11   2.0000      -9.950324      -270.7621
  12   2.0000      -9.949955      -270.7520
  13   2.0000      -9.949305      -270.7344
  14   2.0000      -9.948709      -270.7181
  15   2.0000      -9.881808      -268.8977
  16   2.0000      -9.881473      -268.8886
  17   2.0000      -9.877061      -268.7685
  18   2.0000      -9.875161      -268.7168
  19   2.0000      -7.685302      -209.1277
  20   2.0000      -7.683074      -209.0671
  21   2.0000      -7.627916      -207.5662
  22   2.0000      -7.624647      -207.4772
  23   2.0000      -6.420149      -174.7011
  24   2.0000      -6.419816      -174.6921
  25   2.0000      -5.713342      -155.4679
  26   2.0000      -5.710986      -155.4038
  27   2.0000      -5.709728      -155.3696
  28   2.0000      -5.707673      -155.3137
  29   2.0000      -5.702099      -155.1620
  30   2.0000      -5.699895      -155.1020
  31   2.0000      -5.656745      -153.9279
  32   2.0000      -5.653452      -153.8383
  33   2.0000      -5.648787      -153.7113
  34   2.0000      -5.647896      -153.6871
  35   2.0000      -5.645425      -153.6198
  36   2.0000      -5.644793      -153.6026
  37   2.0000      -4.642834      -126.3379
  38   2.0000      -4.642653      -126.3330
  39   2.0000      -4.641648      -126.3057
  40   2.0000      -4.641436      -126.2999
  41   2.0000      -4.640807      -126.2828
  42   2.0000      -4.640195      -126.2661
  43   2.0000      -0.983862       -26.7722
  44   2.0000      -0.983404       -26.7598
  45   2.0000      -0.939937       -25.5770
  46   2.0000      -0.938823       -25.5467
  47   2.0000      -0.759824       -20.6759
  48   2.0000      -0.717918       -19.5355
  49   2.0000      -0.704318       -19.1655
  50   2.0000      -0.684723       -18.6323
  51   2.0000      -0.683327       -18.5943
  52   2.0000      -0.671194       -18.2641
  53   2.0000      -0.649336       -17.6693
  54   2.0000      -0.631036       -17.1714
  55   2.0000      -0.596670       -16.2362
  56   2.0000      -0.587651       -15.9908
  57   2.0000      -0.573850       -15.6152
  58   2.0000      -0.572911       -15.5897
  59   2.0000      -0.553908       -15.0726
  60   2.0000      -0.495921       -13.4947
  61   2.0000      -0.492853       -13.4112
  62   2.0000      -0.466518       -12.6946
  63   2.0000      -0.464746       -12.6464
  64   2.0000      -0.450914       -12.2700
  65   2.0000      -0.447900       -12.1880
  66   2.0000      -0.431446       -11.7402
  67   2.0000      -0.429588       -11.6897
  68   2.0000      -0.424076       -11.5397
  69   2.0000      -0.412622       -11.2280
  70   2.0000      -0.408050       -11.1036
  71   2.0000      -0.405060       -11.0222
  72   2.0000      -0.398635       -10.8474
  73   2.0000      -0.383185       -10.4270
  74   2.0000      -0.373680       -10.1683
  75   2.0000      -0.367740       -10.0067
  76   2.0000      -0.365801        -9.9539
  77   2.0000      -0.351549        -9.5661
  78   2.0000      -0.349576        -9.5125
  79   2.0000      -0.346534        -9.4297
  80   2.0000      -0.342250        -9.3131
  81   2.0000      -0.339494        -9.2381
  82   2.0000      -0.336689        -9.1618
  83   2.0000      -0.331385        -9.0174
  84   2.0000      -0.328984        -8.9521
  85   2.0000      -0.310864        -8.4591
  86   2.0000      -0.309360        -8.4181
  87   2.0000      -0.292487        -7.9590
  88   2.0000      -0.292136        -7.9494
  89   2.0000      -0.286420        -7.7939
  90   2.0000      -0.284083        -7.7303
  91   2.0000      -0.271176        -7.3791
  92   2.0000      -0.270844        -7.3700
  93   2.0000      -0.258799        -7.0423
  94   2.0000      -0.257247        -7.0001
  95   2.0000      -0.232661        -6.3310
  96   2.0000      -0.217923        -5.9300
  97   2.0000      -0.211627        -5.7587
  98   2.0000      -0.197252        -5.3675
  99   2.0000      -0.190326        -5.1790
 100   2.0000      -0.185119        -5.0373
 101   0.0000      -0.040687        -1.1071
 102   0.0000      -0.030663        -0.8344
 103   0.0000      -0.007036        -0.1915
 104   0.0000       0.015965         0.4344
 105   0.0000       0.018861         0.5132

MULLIKEN ATOMIC CHARGES
-----------------------
   0 C :   -0.317085
   1 C :   -0.003931
   2 O :   -0.379911
   3 P :    0.622260
   4 S :   -0.315292
   5 O :   -0.360449
   6 C :   -0.001629
   7 C :   -0.317127
   8 S :   -0.088908
   9 C :   -0.361893
  10 S :   -0.084047
  11 P :    0.632743
  12 S :   -0.314378
  13 O :   -0.357755
  14 C :   -0.004851
  15 C :   -0.317607
  16 O :   -0.382294
  17 C :   -0.002830
  18 C :   -0.307633
  19 H :    0.116987
  20 H :    0.129974
  21 H :    0.113048
  22 H :    0.110439
  23 H :    0.102356
  24 H :    0.105893
  25 H :    0.102431
  26 H :    0.128816
  27 H :    0.102228
  28 H :    0.128493
  29 H :    0.179657
  30 H :    0.210133
  31 H :    0.105309
  32 H :    0.106408
  33 H :    0.125508
  34 H :    0.105320
  35 H :    0.133893
  36 H :    0.101011
  37 H :    0.109234
  38 H :    0.117337
  39 H :    0.117292
  40 H :    0.110850
Sum of atomic charges:   -0.0000000

LOEWDIN ATOMIC CHARGES
----------------------
   0 C :   -0.369246
   1 C :   -0.121495
   2 O :   -0.246346
   3 P :    0.564068
   4 S :   -0.304472
   5 O :   -0.241245
   6 C :   -0.107899
   7 C :   -0.367451
   8 S :    0.088339
   9 C :   -0.481128
  10 S :    0.090676
  11 P :    0.574008
  12 S :   -0.297743
  13 O :   -0.233271
  14 C :   -0.110029
  15 C :   -0.368327
  16 O :   -0.249431
  17 C :   -0.121871
  18 C :   -0.367956
  19 H :    0.124243
  20 H :    0.122648
  21 H :    0.131173
  22 H :    0.109407
  23 H :    0.117086
  24 H :    0.119660
  25 H :    0.109797
  26 H :    0.128139
  27 H :    0.124997
  28 H :    0.121975
  29 H :    0.134443
  30 H :    0.124278
  31 H :    0.110363
  32 H :    0.117034
  33 H :    0.120638
  34 H :    0.126904
  35 H :    0.130601
  36 H :    0.116383
  37 H :    0.108387
  38 H :    0.118624
  39 H :    0.124429
  40 H :    0.129610

  Mayer bond orders larger than 0.100000
B(  0-C ,  1-C ) :   1.1662 B(  0-C , 19-H ) :   0.9454 B(  0-C , 20-H ) :   0.9348
B(  0-C , 21-H ) :   0.9383 B(  1-C ,  2-O ) :   0.9081 B(  1-C , 22-H ) :   0.9112
B(  1-C , 23-H ) :   0.9330 B(  2-O ,  3-P ) :   1.0879 B(  3-P ,  4-S ) :   1.6305
B(  3-P ,  5-O ) :   1.1235 B(  3-P ,  8-S ) :   0.9522 B(  4-S ,  8-S ) :   0.1160
B(  5-O ,  6-C ) :   0.9103 B(  6-C ,  7-C ) :   1.1671 B(  6-C , 24-H ) :   0.9360
B(  6-C , 25-H ) :   0.9248 B(  7-C , 26-H ) :   0.9373 B(  7-C , 27-H ) :   0.9372
B(  7-C , 28-H ) :   0.9329 B(  8-S ,  9-C ) :   1.0018 B(  9-C , 10-S ) :   1.0019
B(  9-C , 29-H ) :   0.9103 B(  9-C , 30-H ) :   0.8458 B( 10-S , 11-P ) :   0.9662
B( 10-S , 12-S ) :   0.1239 B( 11-P , 12-S ) :   1.5924 B( 11-P , 13-O ) :   1.1301
B( 11-P , 16-O ) :   1.0801 B( 13-O , 14-C ) :   0.9095 B( 14-C , 15-C ) :   1.1672
B( 14-C , 31-H ) :   0.9285 B( 14-C , 32-H ) :   0.9285 B( 15-C , 33-H ) :   0.9354
B( 15-C , 34-H ) :   0.9369 B( 15-C , 35-H ) :   0.9425 B( 16-O , 17-C ) :   0.9156
B( 17-C , 18-C ) :   1.1661 B( 17-C , 36-H ) :   0.9332 B( 17-C , 37-H ) :   0.9123
B( 18-C , 38-H ) :   0.9373 B( 18-C , 39-H ) :   0.9445 B( 18-C , 40-H ) :   0.9384

Dispersion correction           -0.067822694
FINAL SINGLE POINT ENERGY     -2929.517386726350

DIPOLE MOMENT
-------------

Method             : SCF
Type of density    : Electron Density
Multiplicity       :   1
Irrep              :   0
Energy             : -2929.6349054407792210 Eh
Relativity type    :
Basis              : AO
                                X                 Y                 Z
Electronic contribution:      2.748440653      -8.092266310      -5.694653914
Nuclear contribution   :     -2.684151320       7.938902302       6.505723230
                        -----------------------------------------
Total Dipole Moment    :      0.064289333      -0.153364008       0.811069316
                        -----------------------------------------
Magnitude (a.u.)       :      0.827941467
Magnitude (Debye)      :      2.104459965

Rotational constants in cm-1:             0.012224             0.005556             0.005018
Rotational constants in MHz :           366.473227           166.577758           150.442482

                             ****ORCA TERMINATED NORMALLY****
TOTAL RUN TIME: 0 days 0 hours 0 minutes 21 seconds 617 msec
