                         Program Version 6.0.0  -   RELEASE  -
|  1> ! pbe def2-sv(p) def2/J RI DEFGRID1 loosescf d4 GCP(DFT/SV(P)) printgap
|  2> %output
|  3>     printlevel normal
|  4> end
|  5> * xyz 0 1
|  6> C 3.4500350007 2.3011054927 0.2571626415
|  7> C 2.2711534701 1.8863441416 -0.5967495451
|  8> O 2.2485235676 0.4623582436 -0.8225799235
|  9> P 1.9921607893 -0.5814346823 0.335602608
| 10> S 0.7549225268 -0.0381250152 1.7633605609
| 11> O 3.4673394197 -0.8930239727 0.8324312604
| 12> C 3.7215160717 -1.771311376 1.94734223
| 13> C 5.1464938618 -1.5390337595 2.4072775884
| 14> S 1.5106606672 -2.306226501 -0.7693462184
| 15> C -0.274087621 -2.0615002421 -0.9541226919
| 16> S -0.6960928317 -0.5665108737 -1.9064501541
| 17> P -1.9645999502 0.4290177952 -0.5377087129
| 18> S -2.6899634836 -0.7115855704 0.8893953319
| 19> O -3.0696123627 1.0869996929 -1.4755821865
| 20> C -4.2271740779 0.3554731524 -1.9269926352
| 21> C -5.4440970934 0.7367869425 -1.1066233686
| 22> O -1.0935621772 1.7065811776 -0.1957777231
| 23> C -1.6461940456 2.9399966157 0.3209169459
| 24> C -2.2040105653 2.7707749161 1.7185582875
| 25> H 3.4861903523 3.3841368694 0.3218707224
| 26> H 3.3408502976 1.8879408597 1.2594009998
| 27> H 4.3748326374 1.9306723873 -0.1769965691
| 28> H 2.3238529245 2.3056781366 -1.6024553813
| 29> H 1.3266781518 2.1725745051 -0.1241987636
| 30> H 2.9994018325 -1.5463856714 2.7397728881
| 31> H 3.5730347495 -2.8009896397 1.6111007904
| 32> H 5.3698510471 -2.2144912367 3.2264810177
| 33> H 5.8332372374 -1.7266498659 1.5871876125
| 34> H 5.2706066318 -0.5137527495 2.7439332727
| 35> H -0.7511844075 -1.9918497482 0.0286666959
| 36> H -0.6325354944 -2.929923475 -1.5009274423
| 37> H -4.3456256242 0.6338327663 -2.9754693764
| 38> H -4.0301398325 -0.7171699891 -1.851133579
| 39> H -6.3161294028 0.2276854522 -1.5037522411
| 40> H -5.3019805817 0.4380825213 -0.0701374086
| 41> H -5.604107492 1.8104870001 -1.1475585908
| 42> H -0.7951586812 3.6236821119 0.313063765
| 43> H -2.4120870041 3.2911155168 -0.3737148227
| 44> H -2.4895649564 3.7396996315 2.1153054644
| 45> H -3.0764775232 2.1196690843 1.7018384047
| 46> H -1.4547147141 2.3198939989 2.3669140558
| 47> *
| 48>
| 49>                          ****END OF INPUT****

CARTESIAN COORDINATES (ANGSTROEM)
---------------------------------
  C      3.450035    2.301105    0.257163
  C      2.271153    1.886344   -0.596750
  O      2.248524    0.462358   -0.822580
  P      1.992161   -0.581435    0.335603
  S      0.754923   -0.038125    1.763361
  O      3.467339   -0.893024    0.832431
  C      3.721516   -1.771311    1.947342
  C      5.146494   -1.539034    2.407278
  S      1.510661   -2.306227   -0.769346
  C     -0.274088   -2.061500   -0.954123
  S     -0.696093   -0.566511   -1.906450
  P     -1.964600    0.429018   -0.537709
  S     -2.689963   -0.711586    0.889395
  O     -3.069612    1.087000   -1.475582
  C     -4.227174    0.355473   -1.926993
  C     -5.444097    0.736787   -1.106623
  O     -1.093562    1.706581   -0.195778
  C     -1.646194    2.939997    0.320917
  C     -2.204011    2.770775    1.718558
  H      3.486190    3.384137    0.321871
  H      3.340850    1.887941    1.259401
  H      4.374833    1.930672   -0.176997
  H      2.323853    2.305678   -1.602455
  H      1.326678    2.172575   -0.124199
  H      2.999402   -1.546386    2.739773
  H      3.573035   -2.800990    1.611101
  H      5.369851   -2.214491    3.226481
  H      5.833237   -1.726650    1.587188
  H      5.270607   -0.513753    2.743933
  H     -0.751184   -1.991850    0.028667
  H     -0.632535   -2.929923   -1.500927
  H     -4.345626    0.633833   -2.975469
  H     -4.030140   -0.717170   -1.851134
  H     -6.316129    0.227685   -1.503752
  H     -5.301981    0.438083   -0.070137
  H     -5.604107    1.810487   -1.147559
  H     -0.795159    3.623682    0.313064
  H     -2.412087    3.291116   -0.373715
  H     -2.489565    3.739700    2.115305
  H     -3.076478    2.119669    1.701838
  H     -1.454715    2.319894    2.366914

 Total Charge           Charge          ....    0
 Multiplicity           Mult            ....    1
 Number of Electrons    NEL             ....  202
 Basis Dimension        Dim             ....  334

ORBITAL ENERGIES
----------------

  NO   OCC          E(Eh)            E(eV)
   0   2.0000     -88.038957     -2395.6618
   1   2.0000     -88.038293     -2395.6437
   2   2.0000     -87.983566     -2394.1545
   3   2.0000     -87.978880     -2394.0270
   4   2.0000     -76.425152     -2079.6341
   5   2.0000     -76.420283     -2079.5016
   6   2.0000     -18.791877      -511.3530
   7   2.0000     -18.789432      -511.2864
   8   2.0000     -18.788480      -511.2605
   9   2.0000     -18.783880      -511.1354
  10   2.0000      -9.953389      -270.8455
  11   2.0000      -9.953090      -270.8374
  12   2.0000      -9.950340      -270.7625
  13   2.0000      -9.949744      -270.7463
  14   2.0000      -9.945312      -270.6257
  15   2.0000      -9.886524      -269.0260
  16   2.0000      -9.882598      -268.9192
  17   2.0000      -9.880102      -268.8512
  18   2.0000      -9.878494      -268.8075
  19   2.0000      -7.684072      -209.0942
  20   2.0000      -7.684021      -209.0929
  21   2.0000      -7.628573      -207.5840
  22   2.0000      -7.623642      -207.4499
  23   2.0000      -6.422350      -174.7610
  24   2.0000      -6.417905      -174.6401
  25   2.0000      -5.712053      -155.4329
  26   2.0000      -5.711887      -155.4283
  27   2.0000      -5.708551      -155.3376
  28   2.0000      -5.708426      -155.3342
  29   2.0000      -5.700990      -155.1318
  30   2.0000      -5.700983      -155.1316
  31   2.0000      -5.657434      -153.9466
  32   2.0000      -5.652412      -153.8099
  33   2.0000      -5.649347      -153.7266
  34   2.0000      -5.648597      -153.7061
  35   2.0000      -5.644364      -153.5909
  36   2.0000      -5.643858      -153.5772
  37   2.0000      -4.645153      -126.4010
  38   2.0000      -4.643858      -126.3658
  39   2.0000      -4.642883      -126.3393
  40   2.0000      -4.640292      -126.2688
  41   2.0000      -4.639736      -126.2536
  42   2.0000      -4.638436      -126.2183
  43   2.0000      -0.986459       -26.8429
  44   2.0000      -0.982335       -26.7307
  45   2.0000      -0.941689       -25.6246
  46   2.0000      -0.941050       -25.6073
  47   2.0000      -0.758930       -20.6515
  48   2.0000      -0.719764       -19.5858
  49   2.0000      -0.706492       -19.2246
  50   2.0000      -0.686359       -18.6768
  51   2.0000      -0.685228       -18.6460
  52   2.0000      -0.670975       -18.2582
  53   2.0000      -0.648179       -17.6379
  54   2.0000      -0.630966       -17.1695
  55   2.0000      -0.595744       -16.2110
  56   2.0000      -0.588813       -16.0224
  57   2.0000      -0.573666       -15.6102
  58   2.0000      -0.563542       -15.3347
  59   2.0000      -0.558762       -15.2047
  60   2.0000      -0.503077       -13.6894
  61   2.0000      -0.497336       -13.5332
  62   2.0000      -0.472230       -12.8500
  63   2.0000      -0.471171       -12.8212
  64   2.0000      -0.449880       -12.2418
  65   2.0000      -0.445026       -12.1098
  66   2.0000      -0.435045       -11.8382
  67   2.0000      -0.432465       -11.7680
  68   2.0000      -0.425987       -11.5917
  69   2.0000      -0.410908       -11.1814
  70   2.0000      -0.406645       -11.0654
  71   2.0000      -0.401701       -10.9308
  72   2.0000      -0.390698       -10.6314
  73   2.0000      -0.386085       -10.5059
  74   2.0000      -0.376113       -10.2346
  75   2.0000      -0.370500       -10.0818
  76   2.0000      -0.366309        -9.9678
  77   2.0000      -0.354512        -9.6468
  78   2.0000      -0.351402        -9.5621
  79   2.0000      -0.346198        -9.4205
  80   2.0000      -0.344287        -9.3685
  81   2.0000      -0.340402        -9.2628
  82   2.0000      -0.337433        -9.1820
  83   2.0000      -0.332877        -9.0581
  84   2.0000      -0.331188        -9.0121
  85   2.0000      -0.313011        -8.5175
  86   2.0000      -0.311172        -8.4674
  87   2.0000      -0.298298        -8.1171
  88   2.0000      -0.296257        -8.0616
  89   2.0000      -0.289180        -7.8690
  90   2.0000      -0.280196        -7.6245
  91   2.0000      -0.273153        -7.4329
  92   2.0000      -0.269706        -7.3391
  93   2.0000      -0.260057        -7.0765
  94   2.0000      -0.257071        -6.9952
  95   2.0000      -0.232090        -6.3155
  96   2.0000      -0.221783        -6.0350
  97   2.0000      -0.211586        -5.7576
  98   2.0000      -0.198271        -5.3952
  99   2.0000      -0.191580        -5.2132
 100   2.0000      -0.184095        -5.0095
 101   0.0000      -0.036169        -0.9842
 102   0.0000      -0.031253        -0.8504
 103   0.0000      -0.002970        -0.0808
 104   0.0000       0.014668         0.3991
 105   0.0000       0.018595         0.5060

MULLIKEN ATOMIC CHARGES
-----------------------
   0 C :   -0.306477
   1 C :   -0.027003
   2 O :   -0.356424
   3 P :    0.607179
   4 S :   -0.320814
   5 O :   -0.377594
   6 C :   -0.011517
   7 C :   -0.281025
   8 S :   -0.094771
   9 C :   -0.359629
  10 S :   -0.089799
  11 P :    0.629246
  12 S :   -0.309843
  13 O :   -0.385940
  14 C :    0.000730
  15 C :   -0.292659
  16 O :   -0.362027
  17 C :   -0.002817
  18 C :   -0.318073
  19 H :    0.106999
  20 H :    0.120609
  21 H :    0.115920
  22 H :    0.103003
  23 H :    0.138500
  24 H :    0.105450
  25 H :    0.102449
  26 H :    0.111782
  27 H :    0.116696
  28 H :    0.118781
  29 H :    0.210113
  30 H :    0.179187
  31 H :    0.105690
  32 H :    0.098164
  33 H :    0.108581
  34 H :    0.126020
  35 H :    0.109784
  36 H :    0.103923
  37 H :    0.109351
  38 H :    0.106730
  39 H :    0.127997
  40 H :    0.133525
Sum of atomic charges:   -0.0000000

LOEWDIN ATOMIC CHARGES
----------------------
   0 C :   -0.365888
   1 C :   -0.118008
   2 O :   -0.234951
   3 P :    0.560601
   4 S :   -0.312854
   5 O :   -0.248813
   6 C :   -0.121072
   7 C :   -0.350265
   8 S :    0.078592
   9 C :   -0.480895
  10 S :    0.079885
  11 P :    0.571564
  12 S :   -0.296371
  13 O :   -0.251626
  14 C :   -0.116698
  15 C :   -0.361092
  16 O :   -0.235524
  17 C :   -0.109770
  18 C :   -0.367775
  19 H :    0.127860
  20 H :    0.121039
  21 H :    0.125735
  22 H :    0.118799
  23 H :    0.114666
  24 H :    0.108098
  25 H :    0.109657
  26 H :    0.130718
  27 H :    0.126982
  28 H :    0.127529
  29 H :    0.124567
  30 H :    0.135396
  31 H :    0.117678
  32 H :    0.107412
  33 H :    0.129345
  34 H :    0.124741
  35 H :    0.123169
  36 H :    0.115110
  37 H :    0.111191
  38 H :    0.127584
  39 H :    0.121569
  40 H :    0.132114

  Mayer bond orders larger than 0.100000
B(  0-C ,  1-C ) :   1.1602 B(  0-C , 19-H ) :   0.9390 B(  0-C , 20-H ) :   0.9347
B(  0-C , 21-H ) :   0.9450 B(  1-C ,  2-O ) :   0.9031 B(  1-C , 22-H ) :   0.9352
B(  1-C , 23-H ) :   0.9052 B(  2-O ,  3-P ) :   1.1389 B(  3-P ,  4-S ) :   1.6268
B(  3-P ,  5-O ) :   1.0974 B(  3-P ,  8-S ) :   0.9609 B(  4-S ,  8-S ) :   0.1114
B(  5-O ,  6-C ) :   0.9054 B(  6-C ,  7-C ) :   1.1600 B(  6-C , 24-H ) :   0.9087
B(  6-C , 25-H ) :   0.9289 B(  7-C , 26-H ) :   0.9421 B(  7-C , 27-H ) :   0.9503
B(  7-C , 28-H ) :   0.9517 B(  8-S ,  9-C ) :   0.9991 B(  9-C , 10-S ) :   0.9988
B(  9-C , 29-H ) :   0.8453 B(  9-C , 30-H ) :   0.9125 B( 10-S , 11-P ) :   0.9706
B( 10-S , 12-S ) :   0.1271 B( 11-P , 12-S ) :   1.6001 B( 11-P , 13-O ) :   1.0813
B( 11-P , 16-O ) :   1.1229 B( 13-O , 14-C ) :   0.9007 B( 14-C , 15-C ) :   1.1666
B( 14-C , 31-H ) :   0.9350 B( 14-C , 32-H ) :   0.9109 B( 15-C , 33-H ) :   0.9404
B( 15-C , 34-H ) :   0.9354 B( 15-C , 35-H ) :   0.9482 B( 16-O , 17-C ) :   0.9023
B( 17-C , 18-C ) :   1.1676 B( 17-C , 36-H ) :   0.9286 B( 17-C , 37-H ) :   0.9283
B( 18-C , 38-H ) :   0.9364 B( 18-C , 39-H ) :   0.9350 B( 18-C , 40-H ) :   0.9421

Dispersion correction           -0.066089780
FINAL SINGLE POINT ENERGY     -2929.520464612437

DIPOLE MOMENT
-------------

Method             : SCF
Type of density    : Electron Density
Multiplicity       :   1
Irrep              :   0
Energy             : -2929.6390991932266843 Eh
Relativity type    :
Basis              : AO
                                X                 Y                 Z
Electronic contribution:     -0.601636000     -14.032810883      -8.725608100
Nuclear contribution   :      0.677045477      14.765107946       8.308596976
                        -----------------------------------------
Total Dipole Moment    :      0.075409477       0.732297064      -0.417011123
                        -----------------------------------------
Magnitude (a.u.)       :      0.846075561
Magnitude (Debye)      :      2.150553170

Rotational constants in cm-1:             0.013838             0.004967             0.004546
Rotational constants in MHz :           414.844459           148.906232           136.277586

                             ****ORCA TERMINATED NORMALLY****
TOTAL RUN TIME: 0 days 0 hours 0 minutes 21 seconds 410 msec
