                         Program Version 6.0.0  -   RELEASE  -
|  1> ! pbe def2-sv(p) def2/J RI DEFGRID1 loosescf d4 GCP(DFT/SV(P)) printgap
|  2> %output
|  3>     printlevel normal
|  4> end
|  5> * xyz 0 1
|  6> C 4.0267098006 0.0029573041 -2.9141221433
|  7> C 4.7972914656 -0.5933103878 -1.7526480124
|  8> O 3.9482892004 -1.3536379236 -0.876386328
|  9> P 2.8829515538 -0.6609609861 0.0634582271
| 10> S 3.4396336332 1.0832798758 0.7840844632
| 11> O 2.758296555 -1.8797443903 1.0654386074
| 12> C 1.6599572097 -2.0924364777 1.9679592111
| 13> C 1.6607520384 -1.1060430683 3.1192689756
| 14> S 1.0617951217 -0.6533859834 -1.05305005
| 15> C 0.3609746217 0.9048904675 -0.4466647273
| 16> S -0.728888665 0.6932028864 0.9944274455
| 17> P -2.6032237696 0.7286251985 0.0132915624
| 18> S -2.6180150421 0.7990649527 -1.9509475741
| 19> O -3.2079167106 1.991227309 0.7535574133
| 20> C -4.3495206943 2.7125958389 0.2469480298
| 21> C -5.6193910464 1.8895072221 0.307188298
| 22> O -3.4525804765 -0.4571446787 0.6490201576
| 23> C -3.4825628434 -1.7757832094 0.0794975062
| 24> C -2.1592263943 -2.4955110235 0.2438346704
| 25> H 3.3456657008 0.773168381 -2.5544418575
| 26> H 4.7230174473 0.4509515704 -3.6157708681
| 27> H 3.4500531038 -0.7678178287 -3.4192130963
| 28> H 5.2874558681 0.1942536776 -1.1705425485
| 29> H 5.5389355532 -1.3175537841 -2.0921671197
| 30> H 0.7222393808 -2.0313907659 1.407025659
| 31> H 1.8114448188 -3.1145318824 2.3194667467
| 32> H 2.626064013 -1.1126694349 3.6188357017
| 33> H 1.4609548475 -0.0984824571 2.7573637127
| 34> H 0.8861413028 -1.3800459932 3.8279791254
| 35> H -0.2138470359 1.3334410846 -1.267456506
| 36> H 1.1800369614 1.5589115972 -0.1409369278
| 37> H -4.4061388621 3.59176438 0.8901695541
| 38> H -4.1356559016 3.0179440685 -0.7824753093
| 39> H -5.7677315553 1.5018817298 1.3116195738
| 40> H -6.4642566562 2.5125581871 0.030542842
| 41> H -5.5545957769 1.0533746431 -0.3876165114
| 42> H -4.2839501822 -2.2789402535 0.6222910207
| 43> H -3.7448634983 -1.6913800202 -0.9801995961
| 44> H -1.8531283181 -2.4806212217 1.2872150248
| 45> H -2.2644646265 -3.524002683 -0.0861914496
| 46> H -1.3932212555 -2.0116884326 -0.3628627099
| 47> *
| 48>
| 49>                          ****END OF INPUT****

CARTESIAN COORDINATES (ANGSTROEM)
---------------------------------
  C      4.026710    0.002957   -2.914122
  C      4.797291   -0.593310   -1.752648
  O      3.948289   -1.353638   -0.876386
  P      2.882952   -0.660961    0.063458
  S      3.439634    1.083280    0.784084
  O      2.758297   -1.879744    1.065439
  C      1.659957   -2.092436    1.967959
  C      1.660752   -1.106043    3.119269
  S      1.061795   -0.653386   -1.053050
  C      0.360975    0.904890   -0.446665
  S     -0.728889    0.693203    0.994427
  P     -2.603224    0.728625    0.013292
  S     -2.618015    0.799065   -1.950948
  O     -3.207917    1.991227    0.753557
  C     -4.349521    2.712596    0.246948
  C     -5.619391    1.889507    0.307188
  O     -3.452580   -0.457145    0.649020
  C     -3.482563   -1.775783    0.079498
  C     -2.159226   -2.495511    0.243835
  H      3.345666    0.773168   -2.554442
  H      4.723017    0.450952   -3.615771
  H      3.450053   -0.767818   -3.419213
  H      5.287456    0.194254   -1.170543
  H      5.538936   -1.317554   -2.092167
  H      0.722239   -2.031391    1.407026
  H      1.811445   -3.114532    2.319467
  H      2.626064   -1.112669    3.618836
  H      1.460955   -0.098482    2.757364
  H      0.886141   -1.380046    3.827979
  H     -0.213847    1.333441   -1.267457
  H      1.180037    1.558912   -0.140937
  H     -4.406139    3.591764    0.890170
  H     -4.135656    3.017944   -0.782475
  H     -5.767732    1.501882    1.311620
  H     -6.464257    2.512558    0.030543
  H     -5.554596    1.053375   -0.387617
  H     -4.283950   -2.278940    0.622291
  H     -3.744863   -1.691380   -0.980200
  H     -1.853128   -2.480621    1.287215
  H     -2.264465   -3.524003   -0.086191
  H     -1.393221   -2.011688   -0.362863

 Total Charge           Charge          ....    0
 Multiplicity           Mult            ....    1
 Number of Electrons    NEL             ....  202
 Basis Dimension        Dim             ....  334

ORBITAL ENERGIES
----------------

  NO   OCC          E(Eh)            E(eV)
   0   2.0000     -88.046954     -2395.8794
   1   2.0000     -88.046010     -2395.8537
   2   2.0000     -87.997905     -2394.5447
   3   2.0000     -87.992287     -2394.3919
   4   2.0000     -76.431543     -2079.8080
   5   2.0000     -76.428629     -2079.7287
   6   2.0000     -18.797675      -511.5107
   7   2.0000     -18.793035      -511.3845
   8   2.0000     -18.791376      -511.3393
   9   2.0000     -18.790360      -511.3117
  10   2.0000      -9.956720      -270.9361
  11   2.0000      -9.955089      -270.8917
  12   2.0000      -9.953333      -270.8440
  13   2.0000      -9.952453      -270.8200
  14   2.0000      -9.951260      -270.7876
  15   2.0000      -9.887279      -269.0466
  16   2.0000      -9.887146      -269.0429
  17   2.0000      -9.882820      -268.9252
  18   2.0000      -9.880347      -268.8579
  19   2.0000      -7.691200      -209.2882
  20   2.0000      -7.691002      -209.2828
  21   2.0000      -7.642702      -207.9685
  22   2.0000      -7.637089      -207.8157
  23   2.0000      -6.429387      -174.9525
  24   2.0000      -6.425993      -174.8602
  25   2.0000      -5.718921      -155.6198
  26   2.0000      -5.718814      -155.6168
  27   2.0000      -5.715671      -155.5313
  28   2.0000      -5.715620      -155.5299
  29   2.0000      -5.708490      -155.3359
  30   2.0000      -5.707915      -155.3203
  31   2.0000      -5.671456      -154.3282
  32   2.0000      -5.665879      -154.1764
  33   2.0000      -5.663436      -154.1099
  34   2.0000      -5.662952      -154.0968
  35   2.0000      -5.657714      -153.9542
  36   2.0000      -5.657408      -153.9459
  37   2.0000      -4.651649      -126.5778
  38   2.0000      -4.651044      -126.5613
  39   2.0000      -4.650184      -126.5379
  40   2.0000      -4.648231      -126.4848
  41   2.0000      -4.648080      -126.4807
  42   2.0000      -4.646425      -126.4357
  43   2.0000      -0.991114       -26.9696
  44   2.0000      -0.990104       -26.9421
  45   2.0000      -0.949920       -25.8486
  46   2.0000      -0.945539       -25.7294
  47   2.0000      -0.763427       -20.7739
  48   2.0000      -0.724189       -19.7062
  49   2.0000      -0.712082       -19.3767
  50   2.0000      -0.691182       -18.8080
  51   2.0000      -0.682372       -18.5683
  52   2.0000      -0.679250       -18.4833
  53   2.0000      -0.655870       -17.8471
  54   2.0000      -0.642929       -17.4950
  55   2.0000      -0.607819       -16.5396
  56   2.0000      -0.598433       -16.2842
  57   2.0000      -0.576390       -15.6844
  58   2.0000      -0.570071       -15.5124
  59   2.0000      -0.560371       -15.2485
  60   2.0000      -0.500345       -13.6151
  61   2.0000      -0.493879       -13.4391
  62   2.0000      -0.477622       -12.9967
  63   2.0000      -0.469749       -12.7825
  64   2.0000      -0.459020       -12.4906
  65   2.0000      -0.447780       -12.1847
  66   2.0000      -0.443777       -12.0758
  67   2.0000      -0.436106       -11.8671
  68   2.0000      -0.424360       -11.5474
  69   2.0000      -0.422039       -11.4843
  70   2.0000      -0.410304       -11.1649
  71   2.0000      -0.408295       -11.1103
  72   2.0000      -0.397080       -10.8051
  73   2.0000      -0.392590       -10.6829
  74   2.0000      -0.385731       -10.4963
  75   2.0000      -0.377090       -10.2611
  76   2.0000      -0.370571       -10.0837
  77   2.0000      -0.357990        -9.7414
  78   2.0000      -0.355945        -9.6857
  79   2.0000      -0.352143        -9.5823
  80   2.0000      -0.347454        -9.4547
  81   2.0000      -0.344808        -9.3827
  82   2.0000      -0.342618        -9.3231
  83   2.0000      -0.338870        -9.2211
  84   2.0000      -0.336664        -9.1611
  85   2.0000      -0.319116        -8.6836
  86   2.0000      -0.312566        -8.5054
  87   2.0000      -0.300584        -8.1793
  88   2.0000      -0.298990        -8.1359
  89   2.0000      -0.289753        -7.8846
  90   2.0000      -0.287918        -7.8347
  91   2.0000      -0.276973        -7.5368
  92   2.0000      -0.272059        -7.4031
  93   2.0000      -0.269020        -7.3204
  94   2.0000      -0.261583        -7.1180
  95   2.0000      -0.235728        -6.4145
  96   2.0000      -0.222690        -6.0597
  97   2.0000      -0.219083        -5.9616
  98   2.0000      -0.212437        -5.7807
  99   2.0000      -0.210128        -5.7179
 100   2.0000      -0.204177        -5.5559
 101   0.0000      -0.048651        -1.3239
 102   0.0000      -0.038554        -1.0491
 103   0.0000      -0.014975        -0.4075
 104   0.0000       0.001570         0.0427
 105   0.0000       0.016128         0.4389

MULLIKEN ATOMIC CHARGES
-----------------------
   0 C :   -0.310785
   1 C :   -0.004934
   2 O :   -0.355068
   3 P :    0.597017
   4 S :   -0.323444
   5 O :   -0.349879
   6 C :   -0.036822
   7 C :   -0.304877
   8 S :   -0.094900
   9 C :   -0.361942
  10 S :   -0.085696
  11 P :    0.614045
  12 S :   -0.330758
  13 O :   -0.365376
  14 C :   -0.002549
  15 C :   -0.308778
  16 O :   -0.370477
  17 C :    0.002485
  18 C :   -0.344598
  19 H :    0.121496
  20 H :    0.112685
  21 H :    0.118880
  22 H :    0.114717
  23 H :    0.107501
  24 H :    0.128917
  25 H :    0.107383
  26 H :    0.120511
  27 H :    0.129949
  28 H :    0.108091
  29 H :    0.195388
  30 H :    0.197006
  31 H :    0.108857
  32 H :    0.112438
  33 H :    0.119170
  34 H :    0.113292
  35 H :    0.122458
  36 H :    0.105626
  37 H :    0.111260
  38 H :    0.123593
  39 H :    0.114017
  40 H :    0.144101
Sum of atomic charges:   -0.0000000

LOEWDIN ATOMIC CHARGES
----------------------
   0 C :   -0.367732
   1 C :   -0.119217
   2 O :   -0.232342
   3 P :    0.570237
   4 S :   -0.304895
   5 O :   -0.230861
   6 C :   -0.121760
   7 C :   -0.365948
   8 S :    0.091394
   9 C :   -0.489890
  10 S :    0.097728
  11 P :    0.572395
  12 S :   -0.312112
  13 O :   -0.243203
  14 C :   -0.114824
  15 C :   -0.364725
  16 O :   -0.242818
  17 C :   -0.118797
  18 C :   -0.372833
  19 H :    0.119854
  20 H :    0.130666
  21 H :    0.125512
  22 H :    0.110793
  23 H :    0.119989
  24 H :    0.104700
  25 H :    0.120545
  26 H :    0.128790
  27 H :    0.114612
  28 H :    0.129147
  29 H :    0.127278
  30 H :    0.124705
  31 H :    0.120917
  32 H :    0.111759
  33 H :    0.127542
  34 H :    0.130987
  35 H :    0.122641
  36 H :    0.119007
  37 H :    0.110377
  38 H :    0.123368
  39 H :    0.131908
  40 H :    0.115106

  Mayer bond orders larger than 0.100000
B(  0-C ,  1-C ) :   1.1632 B(  0-C , 19-H ) :   0.9387 B(  0-C , 20-H ) :   0.9387
B(  0-C , 21-H ) :   0.9449 B(  1-C ,  2-O ) :   0.9105 B(  1-C , 22-H ) :   0.9145
B(  1-C , 23-H ) :   0.9338 B(  2-O ,  3-P ) :   1.1361 B(  3-P ,  4-S ) :   1.5964
B(  3-P ,  5-O ) :   1.1343 B(  3-P ,  8-S ) :   0.9365 B(  4-S ,  8-S ) :   0.1224
B(  4-S , 30-H ) :   0.1096 B(  5-O ,  6-C ) :   0.9181 B(  6-C ,  7-C ) :   1.1617
B(  6-C , 24-H ) :   0.9042 B(  6-C , 25-H ) :   0.9343 B(  7-C , 26-H ) :   0.9444
B(  7-C , 27-H ) :   0.9299 B(  7-C , 28-H ) :   0.9381 B(  8-S ,  9-C ) :   1.0103
B(  9-C , 10-S ) :   1.0089 B(  9-C , 29-H ) :   0.8619 B(  9-C , 30-H ) :   0.8538
B( 10-S , 11-P ) :   0.9625 B( 10-S , 12-S ) :   0.1150 B( 11-P , 12-S ) :   1.5874
B( 11-P , 13-O ) :   1.1389 B( 11-P , 16-O ) :   1.1042 B( 13-O , 14-C ) :   0.9098
B( 14-C , 15-C ) :   1.1627 B( 14-C , 31-H ) :   0.9352 B( 14-C , 32-H ) :   0.9193
B( 15-C , 33-H ) :   0.9458 B( 15-C , 34-H ) :   0.9382 B( 15-C , 35-H ) :   0.9387
B( 16-O , 17-C ) :   0.9124 B( 17-C , 18-C ) :   1.1620 B( 17-C , 36-H ) :   0.9328
B( 17-C , 37-H ) :   0.9158 B( 18-C , 38-H ) :   0.9385 B( 18-C , 39-H ) :   0.9361
B( 18-C , 40-H ) :   0.9246

Dispersion correction           -0.064202209
FINAL SINGLE POINT ENERGY     -2929.524375160707

DIPOLE MOMENT
-------------

Method             : SCF
Type of density    : Electron Density
Multiplicity       :   1
Irrep              :   0
Energy             : -2929.6446579508533432 Eh
Relativity type    :
Basis              : AO
                                X                 Y                 Z
Electronic contribution:      7.880169653       4.998027524      -1.068863410
Nuclear contribution   :     -8.772985067      -5.602247800       1.128129881
                        -----------------------------------------
Total Dipole Moment    :     -0.892815414      -0.604220276       0.059266472
                        -----------------------------------------
Magnitude (a.u.)       :      1.079682370
Magnitude (Debye)      :      2.744334490

Rotational constants in cm-1:             0.014024             0.004082             0.003888
Rotational constants in MHz :           420.429003           122.386201           116.554375

                             ****ORCA TERMINATED NORMALLY****
TOTAL RUN TIME: 0 days 0 hours 0 minutes 20 seconds 767 msec
