                         Program Version 6.0.0  -   RELEASE  -
|  1> ! pbe def2-sv(p) def2/J RI DEFGRID1 loosescf d4 GCP(DFT/SV(P)) printgap
|  2> %output
|  3>     printlevel normal
|  4> end
|  5> * xyz 0 1
|  6> C 4.4176781055 -0.2493267901 -2.0018932661
|  7> C 4.3874664597 0.8497115419 -0.9590109992
|  8> O 3.6131195358 0.4867013011 0.195114217
|  9> P 2.037633242 0.2863140223 0.1477962438
| 10> S 1.088991448 1.5869502428 -0.9749140327
| 11> O 1.6271192569 0.4314135731 1.6633468047
| 12> C 1.8309136783 -0.5505397869 2.7133623918
| 13> C 3.2758199669 -0.9762593028 2.8489224855
| 14> S 1.7918517527 -1.7665128105 -0.3514005035
| 15> C 0.0453661159 -1.7184091902 -0.805676306
| 16> S -1.010620313 -1.1589222682 0.5664100283
| 17> P -2.2041020288 0.3143206515 -0.4102956434
| 18> S -2.050754374 0.3297161156 -2.3626688284
| 19> O -1.9133404168 1.7454889705 0.1781365305
| 20> C -2.310554723 2.2369083391 1.4804175952
| 21> C -1.6216799125 1.5017309392 2.6108994885
| 22> O -3.6455536861 0.0388523604 0.2094853766
| 23> C -4.3164052429 -1.233732467 0.2453231452
| 24> C -4.6265921826 -1.7743365892 -1.1351677313
| 25> H 4.7175634729 -1.1920756151 -1.5515486529
| 26> H 3.4305860394 -0.3684305294 -2.4464975204
| 27> H 5.1217559971 0.0179446926 -2.7833970291
| 28> H 3.968933577 1.7686959417 -1.3819643721
| 29> H 5.3807121728 1.0470502655 -0.553201135
| 30> H 1.4779975663 -0.0332961828 3.606741961
| 31> H 1.1834124133 -1.4070417759 2.5043337643
| 32> H 3.9143103909 -0.1065829879 2.979472864
| 33> H 3.3709252965 -1.6263619406 3.7131187114
| 34> H 3.5960599242 -1.5176572129 1.961220461
| 35> H -0.2252464327 -2.7392976689 -1.063775804
| 36> H -0.1128935329 -1.041951315 -1.6512115592
| 37> H -2.0136345493 3.286633344 1.4461249591
| 38> H -3.3966188274 2.1580788698 1.5583425171
| 39> H -1.9549558656 0.4658652381 2.6520252678
| 40> H -0.5440957075 1.5196618436 2.4619845271
| 41> H -1.8621584141 1.9904479852 3.5498255937
| 42> H -3.6941359726 -1.9362259291 0.8070580732
| 43> H -5.2308212142 -1.0219703793 0.8026990526
| 44> H -5.1925557599 -1.0445664878 -1.7089461312
| 45> H -3.7062136538 -1.9896122276 -1.6748415252
| 46> H -5.2065555034 -2.6866652139 -1.0406161354
| 47> *
| 48>
| 49>                          ****END OF INPUT****

CARTESIAN COORDINATES (ANGSTROEM)
---------------------------------
  C      4.417678   -0.249327   -2.001893
  C      4.387466    0.849712   -0.959011
  O      3.613120    0.486701    0.195114
  P      2.037633    0.286314    0.147796
  S      1.088991    1.586950   -0.974914
  O      1.627119    0.431414    1.663347
  C      1.830914   -0.550540    2.713362
  C      3.275820   -0.976259    2.848922
  S      1.791852   -1.766513   -0.351401
  C      0.045366   -1.718409   -0.805676
  S     -1.010620   -1.158922    0.566410
  P     -2.204102    0.314321   -0.410296
  S     -2.050754    0.329716   -2.362669
  O     -1.913340    1.745489    0.178137
  C     -2.310555    2.236908    1.480418
  C     -1.621680    1.501731    2.610899
  O     -3.645554    0.038852    0.209485
  C     -4.316405   -1.233732    0.245323
  C     -4.626592   -1.774337   -1.135168
  H      4.717563   -1.192076   -1.551549
  H      3.430586   -0.368431   -2.446498
  H      5.121756    0.017945   -2.783397
  H      3.968934    1.768696   -1.381964
  H      5.380712    1.047050   -0.553201
  H      1.477998   -0.033296    3.606742
  H      1.183412   -1.407042    2.504334
  H      3.914310   -0.106583    2.979473
  H      3.370925   -1.626362    3.713119
  H      3.596060   -1.517657    1.961220
  H     -0.225246   -2.739298   -1.063776
  H     -0.112894   -1.041951   -1.651212
  H     -2.013635    3.286633    1.446125
  H     -3.396619    2.158079    1.558343
  H     -1.954956    0.465865    2.652025
  H     -0.544096    1.519662    2.461985
  H     -1.862158    1.990448    3.549826
  H     -3.694136   -1.936226    0.807058
  H     -5.230821   -1.021970    0.802699
  H     -5.192556   -1.044566   -1.708946
  H     -3.706214   -1.989612   -1.674842
  H     -5.206556   -2.686665   -1.040616

 Total Charge           Charge          ....    0
 Multiplicity           Mult            ....    1
 Number of Electrons    NEL             ....  202
 Basis Dimension        Dim             ....  334

ORBITAL ENERGIES
----------------

  NO   OCC          E(Eh)            E(eV)
   0   2.0000     -88.045660     -2395.8442
   1   2.0000     -88.043165     -2395.7763
   2   2.0000     -87.976150     -2393.9527
   3   2.0000     -87.976117     -2393.9518
   4   2.0000     -76.422835     -2079.5711
   5   2.0000     -76.422278     -2079.5559
   6   2.0000     -18.790705      -511.3211
   7   2.0000     -18.789841      -511.2976
   8   2.0000     -18.789576      -511.2904
   9   2.0000     -18.781985      -511.0838
  10   2.0000      -9.956157      -270.9208
  11   2.0000      -9.954349      -270.8716
  12   2.0000      -9.952955      -270.8337
  13   2.0000      -9.950296      -270.7613
  14   2.0000      -9.949370      -270.7361
  15   2.0000      -9.888475      -269.0791
  16   2.0000      -9.882992      -268.9299
  17   2.0000      -9.882078      -268.9050
  18   2.0000      -9.880173      -268.8532
  19   2.0000      -7.690412      -209.2668
  20   2.0000      -7.687104      -209.1767
  21   2.0000      -7.621380      -207.3883
  22   2.0000      -7.620952      -207.3766
  23   2.0000      -6.419930      -174.6952
  24   2.0000      -6.419030      -174.6707
  25   2.0000      -5.718267      -155.6020
  26   2.0000      -5.714927      -155.5111
  27   2.0000      -5.714753      -155.5063
  28   2.0000      -5.711557      -155.4194
  29   2.0000      -5.707624      -155.3124
  30   2.0000      -5.704347      -155.2232
  31   2.0000      -5.650530      -153.7588
  32   2.0000      -5.650038      -153.7454
  33   2.0000      -5.641860      -153.5228
  34   2.0000      -5.641426      -153.5110
  35   2.0000      -5.641379      -153.5097
  36   2.0000      -5.641138      -153.5032
  37   2.0000      -4.642691      -126.3340
  38   2.0000      -4.641912      -126.3129
  39   2.0000      -4.641876      -126.3119
  40   2.0000      -4.640901      -126.2853
  41   2.0000      -4.640086      -126.2632
  42   2.0000      -4.639237      -126.2401
  43   2.0000      -0.984699       -26.7950
  44   2.0000      -0.983095       -26.7514
  45   2.0000      -0.943545       -25.6752
  46   2.0000      -0.937050       -25.4984
  47   2.0000      -0.761932       -20.7332
  48   2.0000      -0.717408       -19.5217
  49   2.0000      -0.709761       -19.3136
  50   2.0000      -0.689474       -18.7615
  51   2.0000      -0.687137       -18.6980
  52   2.0000      -0.677575       -18.4377
  53   2.0000      -0.647388       -17.6163
  54   2.0000      -0.630752       -17.1636
  55   2.0000      -0.594662       -16.1816
  56   2.0000      -0.586938       -15.9714
  57   2.0000      -0.578222       -15.7342
  58   2.0000      -0.574755       -15.6399
  59   2.0000      -0.561562       -15.2809
  60   2.0000      -0.496883       -13.5209
  61   2.0000      -0.490248       -13.3403
  62   2.0000      -0.470850       -12.8125
  63   2.0000      -0.467309       -12.7161
  64   2.0000      -0.448154       -12.1949
  65   2.0000      -0.447085       -12.1658
  66   2.0000      -0.441114       -12.0033
  67   2.0000      -0.436128       -11.8676
  68   2.0000      -0.430150       -11.7050
  69   2.0000      -0.422354       -11.4928
  70   2.0000      -0.409080       -11.1316
  71   2.0000      -0.403778       -10.9874
  72   2.0000      -0.398749       -10.8505
  73   2.0000      -0.390096       -10.6150
  74   2.0000      -0.378247       -10.2926
  75   2.0000      -0.364073        -9.9069
  76   2.0000      -0.360833        -9.8188
  77   2.0000      -0.355404        -9.6710
  78   2.0000      -0.351891        -9.5755
  79   2.0000      -0.348579        -9.4853
  80   2.0000      -0.347870        -9.4660
  81   2.0000      -0.344651        -9.3784
  82   2.0000      -0.340034        -9.2528
  83   2.0000      -0.334230        -9.0949
  84   2.0000      -0.332233        -9.0405
  85   2.0000      -0.318372        -8.6633
  86   2.0000      -0.309054        -8.4098
  87   2.0000      -0.294117        -8.0033
  88   2.0000      -0.293659        -7.9909
  89   2.0000      -0.288677        -7.8553
  90   2.0000      -0.284292        -7.7360
  91   2.0000      -0.274330        -7.4649
  92   2.0000      -0.270178        -7.3519
  93   2.0000      -0.259941        -7.0734
  94   2.0000      -0.254960        -6.9378
  95   2.0000      -0.234925        -6.3926
  96   2.0000      -0.221880        -6.0377
  97   2.0000      -0.207246        -5.6394
  98   2.0000      -0.193753        -5.2723
  99   2.0000      -0.188595        -5.1319
 100   2.0000      -0.179987        -4.8977
 101   0.0000      -0.043329        -1.1790
 102   0.0000      -0.034186        -0.9303
 103   0.0000      -0.006521        -0.1774
 104   0.0000       0.007970         0.2169
 105   0.0000       0.015259         0.4152

MULLIKEN ATOMIC CHARGES
-----------------------
   0 C :   -0.319610
   1 C :    0.000674
   2 O :   -0.373879
   3 P :    0.586609
   4 S :   -0.284172
   5 O :   -0.355539
   6 C :   -0.004213
   7 C :   -0.300522
   8 S :   -0.121388
   9 C :   -0.324985
  10 S :   -0.150878
  11 P :    0.633721
  12 S :   -0.294100
  13 O :   -0.345467
  14 C :    0.008332
  15 C :   -0.348818
  16 O :   -0.385669
  17 C :   -0.007016
  18 C :   -0.302917
  19 H :    0.113846
  20 H :    0.132420
  21 H :    0.113751
  22 H :    0.113617
  23 H :    0.102825
  24 H :    0.106842
  25 H :    0.109125
  26 H :    0.122583
  27 H :    0.112425
  28 H :    0.119544
  29 H :    0.176162
  30 H :    0.208927
  31 H :    0.111336
  32 H :    0.106910
  33 H :    0.114571
  34 H :    0.155770
  35 H :    0.109313
  36 H :    0.105409
  37 H :    0.103442
  38 H :    0.123175
  39 H :    0.120957
  40 H :    0.106886
Sum of atomic charges:   -0.0000000

LOEWDIN ATOMIC CHARGES
----------------------
   0 C :   -0.371112
   1 C :   -0.118262
   2 O :   -0.244131
   3 P :    0.561588
   4 S :   -0.292985
   5 O :   -0.233445
   6 C :   -0.115853
   7 C :   -0.365923
   8 S :    0.074751
   9 C :   -0.480344
  10 S :    0.066387
  11 P :    0.572533
  12 S :   -0.289494
  13 O :   -0.223828
  14 C :   -0.107276
  15 C :   -0.373925
  16 O :   -0.248089
  17 C :   -0.118888
  18 C :   -0.367954
  19 H :    0.121699
  20 H :    0.123323
  21 H :    0.131407
  22 H :    0.112960
  23 H :    0.117648
  24 H :    0.119931
  25 H :    0.102221
  26 H :    0.129200
  27 H :    0.131104
  28 H :    0.117399
  29 H :    0.134106
  30 H :    0.125378
  31 H :    0.124059
  32 H :    0.111900
  33 H :    0.112478
  34 H :    0.134208
  35 H :    0.129429
  36 H :    0.102347
  37 H :    0.117991
  38 H :    0.129972
  39 H :    0.119636
  40 H :    0.127851

  Mayer bond orders larger than 0.100000
B(  0-C ,  1-C ) :   1.1655 B(  0-C , 19-H ) :   0.9449 B(  0-C , 20-H ) :   0.9345
B(  0-C , 21-H ) :   0.9377 B(  1-C ,  2-O ) :   0.9069 B(  1-C , 22-H ) :   0.9147
B(  1-C , 23-H ) :   0.9341 B(  2-O ,  3-P ) :   1.0887 B(  3-P ,  4-S ) :   1.6610
B(  3-P ,  5-O ) :   1.1217 B(  3-P ,  8-S ) :   0.9293 B(  4-S ,  8-S ) :   0.1075
B(  5-O ,  6-C ) :   0.8958 B(  6-C ,  7-C ) :   1.1740 B(  6-C , 24-H ) :   0.9319
B(  6-C , 25-H ) :   0.9125 B(  7-C , 26-H ) :   0.9428 B(  7-C , 27-H ) :   0.9361
B(  7-C , 28-H ) :   0.9375 B(  8-S ,  9-C ) :   1.0006 B(  9-C , 10-S ) :   0.9975
B(  9-C , 29-H ) :   0.9098 B(  9-C , 30-H ) :   0.8412 B( 10-S , 11-P ) :   0.9212
B( 10-S , 12-S ) :   0.1178 B( 11-P , 12-S ) :   1.6421 B( 11-P , 13-O ) :   1.1438
B( 11-P , 16-O ) :   1.0667 B( 12-S , 30-H ) :   0.1084 B( 13-O , 14-C ) :   0.9036
B( 14-C , 15-C ) :   1.1700 B( 14-C , 31-H ) :   0.9322 B( 14-C , 32-H ) :   0.9272
B( 15-C , 33-H ) :   0.9382 B( 15-C , 34-H ) :   0.9261 B( 15-C , 35-H ) :   0.9357
B( 16-O , 17-C ) :   0.9179 B( 17-C , 18-C ) :   1.1659 B( 17-C , 36-H ) :   0.9186
B( 17-C , 37-H ) :   0.9338 B( 18-C , 38-H ) :   0.9457 B( 18-C , 39-H ) :   0.9323
B( 18-C , 40-H ) :   0.9360

Dispersion correction           -0.068532726
FINAL SINGLE POINT ENERGY     -2929.512181546540

DIPOLE MOMENT
-------------

Method             : SCF
Type of density    : Electron Density
Multiplicity       :   1
Irrep              :   0
Energy             : -2929.6301262887359371 Eh
Relativity type    :
Basis              : AO
                                X                 Y                 Z
Electronic contribution:     -2.731760679       5.475437284     -10.104940258
Nuclear contribution   :      2.984750934      -6.525555795      11.791650307
                        -----------------------------------------
Total Dipole Moment    :      0.252990255      -1.050118511       1.686710049
                        -----------------------------------------
Magnitude (a.u.)       :      2.002933785
Magnitude (Debye)      :      5.091053089

Rotational constants in cm-1:             0.012925             0.005332             0.005007
Rotational constants in MHz :           387.475094           159.848943           150.091317

                             ****ORCA TERMINATED NORMALLY****
TOTAL RUN TIME: 0 days 0 hours 0 minutes 20 seconds 979 msec
