                         Program Version 6.0.0  -   RELEASE  -
|  1> ! pbe def2-sv(p) def2/J RI DEFGRID1 loosescf d4 GCP(DFT/SV(P)) printgap
|  2> %output
|  3>     printlevel normal
|  4> end
|  5> * xyz 0 1
|  6> C 5.7535584108 0.7907883154 -0.9064672146
|  7> C 4.3467656788 0.3398154759 -1.2427392718
|  8> O 3.5953214129 0.2888334936 -0.0122260409
|  9> P 2.0149755057 0.1530541229 -0.0159385183
| 10> S 1.047658961 1.5081696902 -1.0514543759
| 11> O 1.6553346865 0.2102175821 1.5149359983
| 12> C 2.2591576153 -0.6602127687 2.5104838629
| 13> C 3.3921758391 0.0509013712 3.2195845593
| 14> S 1.7405258485 -1.8632379987 -0.6421029629
| 15> C -0.0246247786 -1.7778963919 -1.0117209646
| 16> S -1.0156725379 -1.282168593 0.4315272275
| 17> P -2.2093188002 0.2718205306 -0.4100975184
| 18> S -2.1707479329 0.404892792 -2.3620659511
| 19> O -1.8942171596 1.6280994357 0.3153811126
| 20> C -1.4690215581 1.8137081844 1.6869057556
| 21> C -2.3606931684 1.1084405339 2.6847118095
| 22> O -3.6532373864 -0.0638995921 0.1690674927
| 23> C -4.4256230265 -1.170047279 -0.3345198928
| 24> C -5.8754194152 -0.9375689363 0.0404002753
| 25> H 6.3396703407 0.8356423685 -1.8184000488
| 26> H 5.7305406569 1.7750642014 -0.4472627911
| 27> H 6.2141687635 0.0887313263 -0.2177182259
| 28> H 4.3418576324 -0.6587019428 -1.6880326889
| 29> H 3.8503925732 1.038286388 -1.9243484105
| 30> H 1.4418176665 -0.8991071264 3.1930520367
| 31> H 2.6068260272 -1.5718600651 2.0175383356
| 32> H 4.1848531498 0.2900691059 2.5159208782
| 33> H 3.0331177878 0.9726297972 3.6688069331
| 34> H 3.7849504531 -0.5975360347 3.9964007511
| 35> H -0.3179844957 -2.7817935604 -1.3084863135
| 36> H -0.2095139072 -1.059499564 -1.816017179
| 37> H -0.4325868947 1.4718168908 1.7651605503
| 38> H -1.5010664517 2.8978497779 1.8071990483
| 39> H -2.2920070901 0.0289824679 2.5572950326
| 40> H -2.0390230571 1.3678068327 3.6886692914
| 41> H -3.3938596314 1.4153511144 2.5445640237
| 42> H -4.2958289614 -1.2208091647 -1.4211417526
| 43> H -4.0381876716 -2.087395855 0.1173452796
| 44> H -6.4744777697 -1.7647534623 -0.3256749761
| 45> H -5.9745568617 -0.8696024419 1.119664125
| 46> H -6.2305887827 -0.0126428529 -0.4053921666
| 47> *
| 48>
| 49>                          ****END OF INPUT****

CARTESIAN COORDINATES (ANGSTROEM)
---------------------------------
  C      5.753558    0.790788   -0.906467
  C      4.346766    0.339815   -1.242739
  O      3.595321    0.288833   -0.012226
  P      2.014976    0.153054   -0.015939
  S      1.047659    1.508170   -1.051454
  O      1.655335    0.210218    1.514936
  C      2.259158   -0.660213    2.510484
  C      3.392176    0.050901    3.219585
  S      1.740526   -1.863238   -0.642103
  C     -0.024625   -1.777896   -1.011721
  S     -1.015673   -1.282169    0.431527
  P     -2.209319    0.271821   -0.410098
  S     -2.170748    0.404893   -2.362066
  O     -1.894217    1.628099    0.315381
  C     -1.469022    1.813708    1.686906
  C     -2.360693    1.108441    2.684712
  O     -3.653237   -0.063900    0.169067
  C     -4.425623   -1.170047   -0.334520
  C     -5.875419   -0.937569    0.040400
  H      6.339670    0.835642   -1.818400
  H      5.730541    1.775064   -0.447263
  H      6.214169    0.088731   -0.217718
  H      4.341858   -0.658702   -1.688033
  H      3.850393    1.038286   -1.924348
  H      1.441818   -0.899107    3.193052
  H      2.606826   -1.571860    2.017538
  H      4.184853    0.290069    2.515921
  H      3.033118    0.972630    3.668807
  H      3.784950   -0.597536    3.996401
  H     -0.317984   -2.781794   -1.308486
  H     -0.209514   -1.059500   -1.816017
  H     -0.432587    1.471817    1.765161
  H     -1.501066    2.897850    1.807199
  H     -2.292007    0.028982    2.557295
  H     -2.039023    1.367807    3.688669
  H     -3.393860    1.415351    2.544564
  H     -4.295829   -1.220809   -1.421142
  H     -4.038188   -2.087396    0.117345
  H     -6.474478   -1.764753   -0.325675
  H     -5.974557   -0.869602    1.119664
  H     -6.230589   -0.012643   -0.405392

 Total Charge           Charge          ....    0
 Multiplicity           Mult            ....    1
 Number of Electrons    NEL             ....  202
 Basis Dimension        Dim             ....  334

ORBITAL ENERGIES
----------------

  NO   OCC          E(Eh)            E(eV)
   0   2.0000     -88.044165     -2395.8035
   1   2.0000     -88.040335     -2395.6993
   2   2.0000     -87.980540     -2394.0722
   3   2.0000     -87.974165     -2393.8987
   4   2.0000     -76.425606     -2079.6465
   5   2.0000     -76.418740     -2079.4596
   6   2.0000     -18.796810      -511.4872
   7   2.0000     -18.796540      -511.4798
   8   2.0000     -18.782758      -511.1048
   9   2.0000     -18.782586      -511.1001
  10   2.0000      -9.960010      -271.0257
  11   2.0000      -9.956492      -270.9299
  12   2.0000      -9.952134      -270.8113
  13   2.0000      -9.945614      -270.6339
  14   2.0000      -9.944983      -270.6168
  15   2.0000      -9.892137      -269.1787
  16   2.0000      -9.890832      -269.1432
  17   2.0000      -9.884218      -268.9632
  18   2.0000      -9.883326      -268.9390
  19   2.0000      -7.689335      -209.2374
  20   2.0000      -7.684633      -209.1095
  21   2.0000      -7.625288      -207.4946
  22   2.0000      -7.619457      -207.3360
  23   2.0000      -6.423063      -174.7804
  24   2.0000      -6.415835      -174.5838
  25   2.0000      -5.717150      -155.5716
  26   2.0000      -5.713645      -155.4762
  27   2.0000      -5.712479      -155.4445
  28   2.0000      -5.709094      -155.3523
  29   2.0000      -5.706592      -155.2843
  30   2.0000      -5.701807      -155.1541
  31   2.0000      -5.654412      -153.8644
  32   2.0000      -5.648495      -153.7034
  33   2.0000      -5.645783      -153.6296
  34   2.0000      -5.645418      -153.6196
  35   2.0000      -5.640074      -153.4742
  36   2.0000      -5.639424      -153.4565
  37   2.0000      -4.645936      -126.4224
  38   2.0000      -4.644987      -126.3965
  39   2.0000      -4.643047      -126.3437
  40   2.0000      -4.638489      -126.2197
  41   2.0000      -4.637736      -126.1992
  42   2.0000      -4.636153      -126.1561
  43   2.0000      -0.992761       -27.0144
  44   2.0000      -0.978606       -26.6292
  45   2.0000      -0.949904       -25.8482
  46   2.0000      -0.935937       -25.4681
  47   2.0000      -0.760934       -20.7061
  48   2.0000      -0.721095       -19.6220
  49   2.0000      -0.710022       -19.3207
  50   2.0000      -0.696721       -18.9588
  51   2.0000      -0.686210       -18.6727
  52   2.0000      -0.674012       -18.3408
  53   2.0000      -0.645897       -17.5758
  54   2.0000      -0.629801       -17.1378
  55   2.0000      -0.591938       -16.1075
  56   2.0000      -0.588476       -16.0132
  57   2.0000      -0.574340       -15.6286
  58   2.0000      -0.566884       -15.4257
  59   2.0000      -0.560348       -15.2478
  60   2.0000      -0.512088       -13.9346
  61   2.0000      -0.496486       -13.5101
  62   2.0000      -0.485908       -13.2222
  63   2.0000      -0.467544       -12.7225
  64   2.0000      -0.449544       -12.2327
  65   2.0000      -0.448306       -12.1990
  66   2.0000      -0.444512       -12.0958
  67   2.0000      -0.433725       -11.8023
  68   2.0000      -0.428860       -11.6699
  69   2.0000      -0.419138       -11.4053
  70   2.0000      -0.407281       -11.0827
  71   2.0000      -0.399591       -10.8734
  72   2.0000      -0.393097       -10.6967
  73   2.0000      -0.385852       -10.4996
  74   2.0000      -0.376172       -10.2362
  75   2.0000      -0.365354        -9.9418
  76   2.0000      -0.361184        -9.8283
  77   2.0000      -0.358883        -9.7657
  78   2.0000      -0.356433        -9.6990
  79   2.0000      -0.352802        -9.6002
  80   2.0000      -0.349858        -9.5201
  81   2.0000      -0.347126        -9.4458
  82   2.0000      -0.345708        -9.4072
  83   2.0000      -0.339799        -9.2464
  84   2.0000      -0.331359        -9.0167
  85   2.0000      -0.320637        -8.7250
  86   2.0000      -0.305487        -8.3127
  87   2.0000      -0.302564        -8.2332
  88   2.0000      -0.298011        -8.1093
  89   2.0000      -0.291863        -7.9420
  90   2.0000      -0.281624        -7.6634
  91   2.0000      -0.278751        -7.5852
  92   2.0000      -0.266866        -7.2618
  93   2.0000      -0.262429        -7.1411
  94   2.0000      -0.252904        -6.8819
  95   2.0000      -0.236742        -6.4421
  96   2.0000      -0.219326        -5.9682
  97   2.0000      -0.206904        -5.6301
  98   2.0000      -0.197871        -5.3843
  99   2.0000      -0.191153        -5.2016
 100   2.0000      -0.180673        -4.9164
 101   0.0000      -0.042138        -1.1466
 102   0.0000      -0.030145        -0.8203
 103   0.0000      -0.004721        -0.1285
 104   0.0000       0.011408         0.3104
 105   0.0000       0.018963         0.5160

MULLIKEN ATOMIC CHARGES
-----------------------
   0 C :   -0.283620
   1 C :   -0.011763
   2 O :   -0.382027
   3 P :    0.583140
   4 S :   -0.279972
   5 O :   -0.349281
   6 C :   -0.008240
   7 C :   -0.290471
   8 S :   -0.116829
   9 C :   -0.333399
  10 S :   -0.144468
  11 P :    0.607857
  12 S :   -0.299542
  13 O :   -0.349655
  14 C :   -0.017068
  15 C :   -0.317287
  16 O :   -0.377079
  17 C :   -0.005209
  18 C :   -0.280317
  19 H :    0.115354
  20 H :    0.123138
  21 H :    0.115218
  22 H :    0.105545
  23 H :    0.110136
  24 H :    0.108284
  25 H :    0.102876
  26 H :    0.124252
  27 H :    0.118061
  28 H :    0.110794
  29 H :    0.177312
  30 H :    0.209955
  31 H :    0.135340
  32 H :    0.107574
  33 H :    0.120022
  34 H :    0.110571
  35 H :    0.123380
  36 H :    0.100948
  37 H :    0.093279
  38 H :    0.109194
  39 H :    0.112525
  40 H :    0.121470
Sum of atomic charges:   -0.0000000

LOEWDIN ATOMIC CHARGES
----------------------
   0 C :   -0.350744
   1 C :   -0.119597
   2 O :   -0.250033
   3 P :    0.555898
   4 S :   -0.286379
   5 O :   -0.230035
   6 C :   -0.114774
   7 C :   -0.359285
   8 S :    0.059851
   9 C :   -0.479586
  10 S :    0.052296
  11 P :    0.572389
  12 S :   -0.299698
  13 O :   -0.223237
  14 C :   -0.116210
  15 C :   -0.367800
  16 O :   -0.249119
  17 C :   -0.124589
  18 C :   -0.350570
  19 H :    0.132569
  20 H :    0.129835
  21 H :    0.125295
  22 H :    0.109130
  23 H :    0.112529
  24 H :    0.119095
  25 H :    0.104614
  26 H :    0.126959
  27 H :    0.127943
  28 H :    0.130036
  29 H :    0.134849
  30 H :    0.126071
  31 H :    0.113208
  32 H :    0.123017
  33 H :    0.114068
  34 H :    0.129976
  35 H :    0.128309
  36 H :    0.105810
  37 H :    0.104607
  38 H :    0.129384
  39 H :    0.124525
  40 H :    0.129394

  Mayer bond orders larger than 0.100000
B(  0-C ,  1-C ) :   1.1595 B(  0-C , 19-H ) :   0.9417 B(  0-C , 20-H ) :   0.9508
B(  0-C , 21-H ) :   0.9507 B(  1-C ,  2-O ) :   0.9021 B(  1-C , 22-H ) :   0.9276
B(  1-C , 23-H ) :   0.9114 B(  2-O ,  3-P ) :   1.0787 B(  3-P ,  4-S ) :   1.6805
B(  3-P ,  5-O ) :   1.1125 B(  3-P ,  8-S ) :   0.9455 B(  4-S ,  8-S ) :   0.1093
B(  5-O ,  6-C ) :   0.8839 B(  6-C ,  7-C ) :   1.1658 B(  6-C , 24-H ) :   0.9347
B(  6-C , 25-H ) :   0.9109 B(  7-C , 26-H ) :   0.9411 B(  7-C , 27-H ) :   0.9475
B(  7-C , 28-H ) :   0.9398 B(  8-S ,  9-C ) :   0.9953 B(  9-C , 10-S ) :   0.9963
B(  9-C , 29-H ) :   0.9114 B(  9-C , 30-H ) :   0.8422 B( 10-S , 11-P ) :   0.9289
B( 10-S , 12-S ) :   0.1162 B( 11-P , 12-S ) :   1.6330 B( 11-P , 13-O ) :   1.1602
B( 11-P , 16-O ) :   1.0787 B( 12-S , 30-H ) :   0.1058 B( 13-O , 14-C ) :   0.8925
B( 14-C , 15-C ) :   1.1649 B( 14-C , 31-H ) :   0.9070 B( 14-C , 32-H ) :   0.9339
B( 15-C , 33-H ) :   0.9379 B( 15-C , 34-H ) :   0.9360 B( 15-C , 35-H ) :   0.9413
B( 16-O , 17-C ) :   0.9105 B( 17-C , 18-C ) :   1.1601 B( 17-C , 36-H ) :   0.9052
B( 17-C , 37-H ) :   0.9261 B( 18-C , 38-H ) :   0.9424 B( 18-C , 39-H ) :   0.9517
B( 18-C , 40-H ) :   0.9509

Dispersion correction           -0.065429684
FINAL SINGLE POINT ENERGY     -2929.517364192177

DIPOLE MOMENT
-------------

Method             : SCF
Type of density    : Electron Density
Multiplicity       :   1
Irrep              :   0
Energy             : -2929.6371282469631296 Eh
Relativity type    :
Basis              : AO
                                X                 Y                 Z
Electronic contribution:     -3.356294661       0.494520189     -15.440660714
Nuclear contribution   :      4.241668303      -1.571928689      17.044785144
                        -----------------------------------------
Total Dipole Moment    :      0.885373642      -1.077408499       1.604124430
                        -----------------------------------------
Magnitude (a.u.)       :      2.125537755
Magnitude (Debye)      :      5.402687614

Rotational constants in cm-1:             0.014021             0.004785             0.004432
Rotational constants in MHz :           420.346365           143.452214           132.882960

                             ****ORCA TERMINATED NORMALLY****
TOTAL RUN TIME: 0 days 0 hours 0 minutes 21 seconds 349 msec
