                         Program Version 6.0.0  -   RELEASE  -
|  1> ! pbe def2-sv(p) def2/J RI DEFGRID1 loosescf d4 GCP(DFT/SV(P)) printgap
|  2> %output
|  3>     printlevel normal
|  4> end
|  5> * xyz 0 1
|  6> C 3.2265599717 -0.79487444 -2.5390537834
|  7> C 3.2272020373 0.6734472354 -2.1725083241
|  8> O 2.1797592767 1.0083401019 -1.2310665117
|  9> P 2.0422648634 0.4499264445 0.2325624007
| 10> S 0.9573137062 1.5979573044 1.3870488643
| 11> O 3.5771415326 0.3652880594 0.6649382312
| 12> C 4.0138872304 0.319988591 2.0328416752
| 13> C 3.6084352293 -0.9611793118 2.7331739516
| 14> S 1.4092000097 -1.5874733896 0.1032201697
| 15> C 0.0717864541 -1.6087957524 1.3306477776
| 16> S -1.5625883804 -2.0045850313 0.6373415527
| 17> P -2.0457344873 -0.1960656571 -0.3045637294
| 18> S -0.8543715974 0.5282292506 -1.694606629
| 19> O -2.3186393621 0.7179494167 0.9537233518
| 20> C -2.5842471343 2.1326157235 0.8272346082
| 21> C -2.4667630039 2.7485830621 2.204734098
| 22> O -3.5170689284 -0.4657203375 -0.8423808092
| 23> C -3.7845631494 -1.0862052042 -2.1158191137
| 24> C -5.1108888884 -0.5621106185 -2.6291097353
| 25> H 3.4851865405 -1.402086884 -1.6727200628
| 26> H 2.2419647929 -1.0912309207 -2.8937802196
| 27> H 3.9568298711 -0.9661032979 -3.3237095078
| 28> H 2.9912117189 1.3018201545 -3.0328133011
| 29> H 4.1837900688 0.9720763001 -1.7387032044
| 30> H 5.0986886028 0.4104558306 1.9586640115
| 31> H 3.6035566361 1.190203577 2.5549006081
| 32> H 3.9009550771 -1.8255566665 2.1427307221
| 33> H 4.0948846677 -1.0050077471 3.7023392145
| 34> H 2.5300032339 -0.9797734681 2.8808598415
| 35> H 0.0250958788 -0.6331695073 1.8227600463
| 36> H 0.2785848084 -2.4082457019 2.0372192509
| 37> H -1.8544093454 2.562790925 0.1325296087
| 38> H -3.5884945385 2.251186617 0.4136674679
| 39> H -2.7112799251 3.8038667894 2.1443316215
| 40> H -3.1485429968 2.2539454968 2.8899524612
| 41> H -1.4490450325 2.6369587801 2.5716549595
| 42> H -2.9655436098 -0.8432585796 -2.801532345
| 43> H -3.8162142364 -2.1668272039 -1.9581633666
| 44> H -5.3502955428 -1.057703256 -3.5641317462
| 45> H -5.8934021839 -0.7628806204 -1.9031026453
| 46> H -5.0514385507 0.5097855388 -2.7972658241
| 47> *
| 48>
| 49>                          ****END OF INPUT****

CARTESIAN COORDINATES (ANGSTROEM)
---------------------------------
  C      3.226560   -0.794874   -2.539054
  C      3.227202    0.673447   -2.172508
  O      2.179759    1.008340   -1.231067
  P      2.042265    0.449926    0.232562
  S      0.957314    1.597957    1.387049
  O      3.577142    0.365288    0.664938
  C      4.013887    0.319989    2.032842
  C      3.608435   -0.961179    2.733174
  S      1.409200   -1.587473    0.103220
  C      0.071786   -1.608796    1.330648
  S     -1.562588   -2.004585    0.637342
  P     -2.045734   -0.196066   -0.304564
  S     -0.854372    0.528229   -1.694607
  O     -2.318639    0.717949    0.953723
  C     -2.584247    2.132616    0.827235
  C     -2.466763    2.748583    2.204734
  O     -3.517069   -0.465720   -0.842381
  C     -3.784563   -1.086205   -2.115819
  C     -5.110889   -0.562111   -2.629110
  H      3.485187   -1.402087   -1.672720
  H      2.241965   -1.091231   -2.893780
  H      3.956830   -0.966103   -3.323710
  H      2.991212    1.301820   -3.032813
  H      4.183790    0.972076   -1.738703
  H      5.098689    0.410456    1.958664
  H      3.603557    1.190204    2.554901
  H      3.900955   -1.825557    2.142731
  H      4.094885   -1.005008    3.702339
  H      2.530003   -0.979773    2.880860
  H      0.025096   -0.633170    1.822760
  H      0.278585   -2.408246    2.037219
  H     -1.854409    2.562791    0.132530
  H     -3.588495    2.251187    0.413667
  H     -2.711280    3.803867    2.144332
  H     -3.148543    2.253945    2.889952
  H     -1.449045    2.636959    2.571655
  H     -2.965544   -0.843259   -2.801532
  H     -3.816214   -2.166827   -1.958163
  H     -5.350296   -1.057703   -3.564132
  H     -5.893402   -0.762881   -1.903103
  H     -5.051439    0.509786   -2.797266

 Total Charge           Charge          ....    0
 Multiplicity           Mult            ....    1
 Number of Electrons    NEL             ....  202
 Basis Dimension        Dim             ....  334

ORBITAL ENERGIES
----------------

  NO   OCC          E(Eh)            E(eV)
   0   2.0000     -88.037477     -2395.6215
   1   2.0000     -88.036567     -2395.5968
   2   2.0000     -87.983809     -2394.1612
   3   2.0000     -87.973639     -2393.8844
   4   2.0000     -76.424683     -2079.6214
   5   2.0000     -76.415645     -2079.3754
   6   2.0000     -18.787597      -511.2365
   7   2.0000     -18.786744      -511.2133
   8   2.0000     -18.783323      -511.1202
   9   2.0000     -18.780209      -511.0355
  10   2.0000      -9.954037      -270.8631
  11   2.0000      -9.952465      -270.8203
  12   2.0000      -9.952402      -270.8186
  13   2.0000      -9.946138      -270.6482
  14   2.0000      -9.940323      -270.4900
  15   2.0000      -9.886320      -269.0204
  16   2.0000      -9.886013      -269.0121
  17   2.0000      -9.883676      -268.9485
  18   2.0000      -9.875385      -268.7229
  19   2.0000      -7.682507      -209.0516
  20   2.0000      -7.682059      -209.0394
  21   2.0000      -7.628787      -207.5899
  22   2.0000      -7.618360      -207.3061
  23   2.0000      -6.421657      -174.7422
  24   2.0000      -6.413575      -174.5222
  25   2.0000      -5.710350      -155.3865
  26   2.0000      -5.710068      -155.3788
  27   2.0000      -5.706978      -155.2948
  28   2.0000      -5.706645      -155.2857
  29   2.0000      -5.699400      -155.0885
  30   2.0000      -5.698918      -155.0754
  31   2.0000      -5.657680      -153.9533
  32   2.0000      -5.649445      -153.7292
  33   2.0000      -5.648843      -153.7128
  34   2.0000      -5.647163      -153.6671
  35   2.0000      -5.638907      -153.4425
  36   2.0000      -5.638744      -153.4380
  37   2.0000      -4.644584      -126.3856
  38   2.0000      -4.643080      -126.3446
  39   2.0000      -4.642219      -126.3212
  40   2.0000      -4.636147      -126.1560
  41   2.0000      -4.635375      -126.1350
  42   2.0000      -4.633908      -126.0951
  43   2.0000      -0.984578       -26.7917
  44   2.0000      -0.977558       -26.6007
  45   2.0000      -0.939477       -25.5645
  46   2.0000      -0.936027       -25.4706
  47   2.0000      -0.757208       -20.6047
  48   2.0000      -0.717998       -19.5377
  49   2.0000      -0.707183       -19.2434
  50   2.0000      -0.689674       -18.7670
  51   2.0000      -0.682212       -18.5639
  52   2.0000      -0.672078       -18.2882
  53   2.0000      -0.645446       -17.5635
  54   2.0000      -0.627886       -17.0857
  55   2.0000      -0.596965       -16.2442
  56   2.0000      -0.581769       -15.8307
  57   2.0000      -0.578595       -15.7444
  58   2.0000      -0.562452       -15.3051
  59   2.0000      -0.553265       -15.0551
  60   2.0000      -0.500325       -13.6145
  61   2.0000      -0.493612       -13.4319
  62   2.0000      -0.473974       -12.8975
  63   2.0000      -0.467301       -12.7159
  64   2.0000      -0.449932       -12.2433
  65   2.0000      -0.445191       -12.1143
  66   2.0000      -0.437295       -11.8994
  67   2.0000      -0.431104       -11.7309
  68   2.0000      -0.424865       -11.5612
  69   2.0000      -0.423531       -11.5249
  70   2.0000      -0.402484       -10.9521
  71   2.0000      -0.398575       -10.8458
  72   2.0000      -0.386713       -10.5230
  73   2.0000      -0.381837       -10.3903
  74   2.0000      -0.374645       -10.1946
  75   2.0000      -0.368170       -10.0184
  76   2.0000      -0.361337        -9.8325
  77   2.0000      -0.354761        -9.6535
  78   2.0000      -0.351640        -9.5686
  79   2.0000      -0.350999        -9.5512
  80   2.0000      -0.344511        -9.3746
  81   2.0000      -0.340745        -9.2721
  82   2.0000      -0.336921        -9.1681
  83   2.0000      -0.333074        -9.0634
  84   2.0000      -0.325817        -8.8659
  85   2.0000      -0.309971        -8.4347
  86   2.0000      -0.307091        -8.3564
  87   2.0000      -0.295137        -8.0311
  88   2.0000      -0.292734        -7.9657
  89   2.0000      -0.292007        -7.9459
  90   2.0000      -0.282137        -7.6773
  91   2.0000      -0.270065        -7.3488
  92   2.0000      -0.263033        -7.1575
  93   2.0000      -0.257863        -7.0168
  94   2.0000      -0.253049        -6.8858
  95   2.0000      -0.233632        -6.3574
  96   2.0000      -0.219438        -5.9712
  97   2.0000      -0.203808        -5.5459
  98   2.0000      -0.200118        -5.4455
  99   2.0000      -0.185963        -5.0603
 100   2.0000      -0.182265        -4.9597
 101   0.0000      -0.035380        -0.9627
 102   0.0000      -0.031201        -0.8490
 103   0.0000      -0.008610        -0.2343
 104   0.0000       0.007041         0.1916
 105   0.0000       0.014531         0.3954

MULLIKEN ATOMIC CHARGES
-----------------------
   0 C :   -0.335117
   1 C :    0.007722
   2 O :   -0.350756
   3 P :    0.631365
   4 S :   -0.318939
   5 O :   -0.388584
   6 C :    0.005404
   7 C :   -0.320866
   8 S :   -0.100552
   9 C :   -0.360793
  10 S :   -0.088659
  11 P :    0.616707
  12 S :   -0.325670
  13 O :   -0.368694
  14 C :   -0.003029
  15 C :   -0.286880
  16 O :   -0.384122
  17 C :   -0.006707
  18 C :   -0.283612
  19 H :    0.126349
  20 H :    0.139777
  21 H :    0.115366
  22 H :    0.112249
  23 H :    0.108652
  24 H :    0.102147
  25 H :    0.110556
  26 H :    0.119188
  27 H :    0.112267
  28 H :    0.123759
  29 H :    0.201941
  30 H :    0.182350
  31 H :    0.115221
  32 H :    0.097319
  33 H :    0.106315
  34 H :    0.111317
  35 H :    0.130971
  36 H :    0.103312
  37 H :    0.099715
  38 H :    0.110004
  39 H :    0.115625
  40 H :    0.117382
Sum of atomic charges:    0.0000000

LOEWDIN ATOMIC CHARGES
----------------------
   0 C :   -0.371440
   1 C :   -0.106756
   2 O :   -0.225213
   3 P :    0.580146
   4 S :   -0.294466
   5 O :   -0.254856
   6 C :   -0.116482
   7 C :   -0.370018
   8 S :    0.078296
   9 C :   -0.484700
  10 S :    0.078157
  11 P :    0.560082
  12 S :   -0.317745
  13 O :   -0.240344
  14 C :   -0.116791
  15 C :   -0.352554
  16 O :   -0.252562
  17 C :   -0.121218
  18 C :   -0.351783
  19 H :    0.116149
  20 H :    0.133535
  21 H :    0.132531
  22 H :    0.124175
  23 H :    0.113511
  24 H :    0.117515
  25 H :    0.110806
  26 H :    0.124382
  27 H :    0.130460
  28 H :    0.120027
  29 H :    0.123276
  30 H :    0.135750
  31 H :    0.111616
  32 H :    0.109230
  33 H :    0.128771
  34 H :    0.124800
  35 H :    0.124342
  36 H :    0.105323
  37 H :    0.110744
  38 H :    0.129854
  39 H :    0.126071
  40 H :    0.127378

  Mayer bond orders larger than 0.100000
B(  0-C ,  1-C ) :   1.1707 B(  0-C , 19-H ) :   0.9320 B(  0-C , 20-H ) :   0.9399
B(  0-C , 21-H ) :   0.9354 B(  1-C ,  2-O ) :   0.9009 B(  1-C , 22-H ) :   0.9324
B(  1-C , 23-H ) :   0.9263 B(  2-O ,  3-P ) :   1.1461 B(  3-P ,  4-S ) :   1.6034
B(  3-P ,  5-O ) :   1.0559 B(  3-P ,  8-S ) :   0.9439 B(  4-S ,  8-S ) :   0.1163
B(  4-S , 29-H ) :   0.1119 B(  5-O ,  6-C ) :   0.9191 B(  6-C ,  7-C ) :   1.1645
B(  6-C , 24-H ) :   0.9346 B(  6-C , 25-H ) :   0.9166 B(  7-C , 26-H ) :   0.9420
B(  7-C , 27-H ) :   0.9367 B(  7-C , 28-H ) :   0.9377 B(  8-S ,  9-C ) :   1.0044
B(  9-C , 10-S ) :   0.9951 B(  9-C , 29-H ) :   0.8444 B(  9-C , 30-H ) :   0.9082
B( 10-S , 11-P ) :   0.9776 B( 10-S , 12-S ) :   0.1174 B( 11-P , 12-S ) :   1.6394
B( 11-P , 13-O ) :   1.1328 B( 11-P , 16-O ) :   1.0958 B( 13-O , 14-C ) :   0.8912
B( 14-C , 15-C ) :   1.1652 B( 14-C , 31-H ) :   0.9097 B( 14-C , 32-H ) :   0.9306
B( 15-C , 33-H ) :   0.9413 B( 15-C , 34-H ) :   0.9491 B( 15-C , 35-H ) :   0.9447
B( 16-O , 17-C ) :   0.9092 B( 17-C , 18-C ) :   1.1613 B( 17-C , 36-H ) :   0.9005
B( 17-C , 37-H ) :   0.9326 B( 18-C , 38-H ) :   0.9420 B( 18-C , 39-H ) :   0.9510
B( 18-C , 40-H ) :   0.9510

Dispersion correction           -0.066290512
FINAL SINGLE POINT ENERGY     -2929.515081101872

DIPOLE MOMENT
-------------

Method             : SCF
Type of density    : Electron Density
Multiplicity       :   1
Irrep              :   0
Energy             : -2929.6330756852107697 Eh
Relativity type    :
Basis              : AO
                                X                 Y                 Z
Electronic contribution:      0.007862955      -2.880350909       0.351742046
Nuclear contribution   :      0.530726482       2.420827769      -0.362395948
                        -----------------------------------------
Total Dipole Moment    :      0.538589437      -0.459523139      -0.010653902
                        -----------------------------------------
Magnitude (a.u.)       :      0.708063276
Magnitude (Debye)      :      1.799753819

Rotational constants in cm-1:             0.011929             0.005297             0.004865
Rotational constants in MHz :           357.635198           158.791414           145.843355

                             ****ORCA TERMINATED NORMALLY****
TOTAL RUN TIME: 0 days 0 hours 0 minutes 21 seconds 285 msec
