                         Program Version 6.0.1  -  RELEASE   -
|  1> ! pbe def2-sv(p) def2/J RI DEFGRID1 loosescf d4 GCP(DFT/SV(P)) printgap
|  2> %output
|  3>     printlevel normal
|  4> end
|  5> * xyz 0 1
|  6> C 5.9734045814 -1.3309563392 -0.2359083883
|  7> C 4.917750871 -0.8670031886 -1.2203068508
|  8> O 3.6574307145 -1.4570068575 -0.8426724065
|  9> C 2.5568570646 -0.9410232524 -1.3416981299
| 10> O 2.524358649 0.004406333 -2.0994261816
| 11> C 1.3236646925 -1.6863655181 -0.8607958744
| 12> C 0.2121921203 -0.6860409814 -0.5802096555
| 13> H 0.1082073658 -0.008538057 -1.4387874882
| 14> C 0.4765287282 0.1746239459 0.6344610065
| 15> O -0.4316840679 0.5714161568 1.3436535683
| 16> O 1.7333960181 0.4395624914 0.8237868976
| 17> C 2.0943118804 1.293021689 1.937090097
| 18> C 3.5977270247 1.2212302752 2.1079649214
| 19> S -1.4035919176 -1.5006725261 -0.3079260652
| 20> P -2.5555238755 0.2362870624 0.0133222299
| 21> S -2.0470932833 1.9757899632 -0.7596503314
| 22> O -3.8059991666 -0.4136803636 -0.7549912335
| 23> C -5.0325637753 0.3049370863 -0.9179283392
| 24> O -3.1850428805 0.2813361675 1.4810294705
| 25> C -2.8400906081 1.189562603 2.5267890969
| 26> H 6.026389754 -2.4153045836 -0.2349095889
| 27> H 6.9366046492 -0.9255460009 -0.5270678581
| 28> H 5.7313150419 -0.9897498399 0.7658684659
| 29> H 5.150374256 -1.190151415 -2.2394217587
| 30> H 4.802699323 0.2211322264 -1.2217857761
| 31> H 1.5699706074 -2.2743354303 0.0212374988
| 32> H 0.9976014495 -2.3595975073 -1.6554386953
| 33> H 1.7567697885 2.3070794626 1.7050545674
| 34> H 1.561255877 0.9400124826 2.8244053623
| 35> H 3.8936280073 1.8607814388 2.9326856742
| 36> H 3.9002549533 0.1998437746 2.3191835694
| 37> H 4.0911855333 1.5573477542 1.2008372573
| 38> H -5.603087888 -0.2529812184 -1.6560607747
| 39> H -4.8290055845 1.3158287898 -1.2778326787
| 40> H -5.5688019869 0.3498087754 0.0294080303
| 41> H -3.7664163487 1.3988123963 3.0576525838
| 42> H -2.422608272 2.1058698896 2.1073634723
| 43> H -2.1112850492 0.722363218 3.1851278089
| 44> *
| 45>
| 46>                          ****END OF INPUT****

CARTESIAN COORDINATES (ANGSTROEM)
---------------------------------
  C      5.973405   -1.330956   -0.235908
  C      4.917751   -0.867003   -1.220307
  O      3.657431   -1.457007   -0.842672
  C      2.556857   -0.941023   -1.341698
  O      2.524359    0.004406   -2.099426
  C      1.323665   -1.686366   -0.860796
  C      0.212192   -0.686041   -0.580210
  H      0.108207   -0.008538   -1.438787
  C      0.476529    0.174624    0.634461
  O     -0.431684    0.571416    1.343654
  O      1.733396    0.439562    0.823787
  C      2.094312    1.293022    1.937090
  C      3.597727    1.221230    2.107965
  S     -1.403592   -1.500673   -0.307926
  P     -2.555524    0.236287    0.013322
  S     -2.047093    1.975790   -0.759650
  O     -3.805999   -0.413680   -0.754991
  C     -5.032564    0.304937   -0.917928
  O     -3.185043    0.281336    1.481029
  C     -2.840091    1.189563    2.526789
  H      6.026390   -2.415305   -0.234910
  H      6.936605   -0.925546   -0.527068
  H      5.731315   -0.989750    0.765868
  H      5.150374   -1.190151   -2.239422
  H      4.802699    0.221132   -1.221786
  H      1.569971   -2.274335    0.021237
  H      0.997601   -2.359598   -1.655439
  H      1.756770    2.307079    1.705055
  H      1.561256    0.940012    2.824405
  H      3.893628    1.860781    2.932686
  H      3.900255    0.199844    2.319184
  H      4.091186    1.557348    1.200837
  H     -5.603088   -0.252981   -1.656061
  H     -4.829006    1.315829   -1.277833
  H     -5.568802    0.349809    0.029408
  H     -3.766416    1.398812    3.057653
  H     -2.422608    2.105870    2.107363
  H     -2.111285    0.722363    3.185128

 Total Charge           Charge          ....    0
 Multiplicity           Mult            ....    1
 Number of Electrons    NEL             ....  174
 Basis Dimension        Dim             ....  316

ORBITAL ENERGIES
----------------

  NO   OCC          E(Eh)            E(eV)
   0   2.0000     -88.030868     -2395.4417
   1   2.0000     -87.965864     -2393.6729
   2   2.0000     -76.412957     -2079.3023
   3   2.0000     -18.830491      -512.4037
   4   2.0000     -18.809713      -511.8383
   5   2.0000     -18.778016      -510.9758
   6   2.0000     -18.766570      -510.6643
   7   2.0000     -18.759322      -510.4671
   8   2.0000     -18.742711      -510.0151
   9   2.0000     -10.029949      -272.9288
  10   2.0000     -10.016510      -272.5631
  11   2.0000      -9.966512      -271.2026
  12   2.0000      -9.955943      -270.9150
  13   2.0000      -9.945921      -270.6423
  14   2.0000      -9.929929      -270.2071
  15   2.0000      -9.927372      -270.1375
  16   2.0000      -9.918597      -269.8987
  17   2.0000      -9.904513      -269.5155
  18   2.0000      -9.897684      -269.3297
  19   2.0000      -7.676212      -208.8804
  20   2.0000      -7.610988      -207.1055
  21   2.0000      -6.408876      -174.3944
  22   2.0000      -5.704305      -155.2220
  23   2.0000      -5.701137      -155.1358
  24   2.0000      -5.692505      -154.9009
  25   2.0000      -5.640146      -153.4762
  26   2.0000      -5.631869      -153.2510
  27   2.0000      -5.630649      -153.2177
  28   2.0000      -4.631477      -126.0289
  29   2.0000      -4.630826      -126.0112
  30   2.0000      -4.629507      -125.9753
  31   2.0000      -1.039468       -28.2854
  32   2.0000      -1.017587       -27.6899
  33   2.0000      -0.966171       -26.2909
  34   2.0000      -0.939434       -25.5633
  35   2.0000      -0.920982       -25.0612
  36   2.0000      -0.920394       -25.0452
  37   2.0000      -0.767642       -20.8886
  38   2.0000      -0.724675       -19.7194
  39   2.0000      -0.719670       -19.5832
  40   2.0000      -0.690821       -18.7982
  41   2.0000      -0.652234       -17.7482
  42   2.0000      -0.626137       -17.0380
  43   2.0000      -0.615915       -16.7599
  44   2.0000      -0.612270       -16.6607
  45   2.0000      -0.595013       -16.1911
  46   2.0000      -0.563568       -15.3355
  47   2.0000      -0.527835       -14.3631
  48   2.0000      -0.518471       -14.1083
  49   2.0000      -0.500382       -13.6161
  50   2.0000      -0.478072       -13.0090
  51   2.0000      -0.468473       -12.7478
  52   2.0000      -0.462697       -12.5906
  53   2.0000      -0.457844       -12.4586
  54   2.0000      -0.455956       -12.4072
  55   2.0000      -0.437736       -11.9114
  56   2.0000      -0.423299       -11.5186
  57   2.0000      -0.416157       -11.3242
  58   2.0000      -0.410619       -11.1735
  59   2.0000      -0.404992       -11.0204
  60   2.0000      -0.399847       -10.8804
  61   2.0000      -0.392711       -10.6862
  62   2.0000      -0.389081       -10.5874
  63   2.0000      -0.377972       -10.2852
  64   2.0000      -0.376549       -10.2464
  65   2.0000      -0.372964       -10.1489
  66   2.0000      -0.369404       -10.0520
  67   2.0000      -0.364475        -9.9179
  68   2.0000      -0.352317        -9.5870
  69   2.0000      -0.351487        -9.5644
  70   2.0000      -0.339615        -9.2414
  71   2.0000      -0.332545        -9.0490
  72   2.0000      -0.330211        -8.9855
  73   2.0000      -0.316213        -8.6046
  74   2.0000      -0.307449        -8.3661
  75   2.0000      -0.301333        -8.1997
  76   2.0000      -0.289546        -7.8789
  77   2.0000      -0.286908        -7.8072
  78   2.0000      -0.273214        -7.4345
  79   2.0000      -0.266241        -7.2448
  80   2.0000      -0.257827        -7.0158
  81   2.0000      -0.252966        -6.8836
  82   2.0000      -0.242342        -6.5945
  83   2.0000      -0.229382        -6.2418
  84   2.0000      -0.207402        -5.6437
  85   2.0000      -0.188836        -5.1385
  86   2.0000      -0.179110        -4.8738
  87   0.0000      -0.048758        -1.3268
  88   0.0000      -0.033591        -0.9140
  89   0.0000      -0.022932        -0.6240
  90   0.0000       0.015870         0.4318
  91   0.0000       0.017920         0.4876

MULLIKEN ATOMIC CHARGES
-----------------------
   0 C :   -0.285332
   1 C :   -0.033297
   2 O :   -0.231261
   3 C :    0.112297
   4 O :   -0.203381
   5 C :   -0.062107
   6 C :   -0.339057
   7 H :    0.181332
   8 C :    0.237212
   9 O :   -0.202082
  10 O :   -0.214414
  11 C :   -0.028204
  12 C :   -0.298670
  13 S :   -0.073364
  14 P :    0.652226
  15 S :   -0.359652
  16 O :   -0.389703
  17 C :   -0.094649
  18 O :   -0.390810
  19 C :   -0.081624
  20 H :    0.117711
  21 H :    0.114133
  22 H :    0.118706
  23 H :    0.108773
  24 H :    0.116008
  25 H :    0.106245
  26 H :    0.131641
  27 H :    0.124354
  28 H :    0.114436
  29 H :    0.118672
  30 H :    0.129399
  31 H :    0.130151
  32 H :    0.119802
  33 H :    0.111551
  34 H :    0.105903
  35 H :    0.112660
  36 H :    0.113104
  37 H :    0.111292
Sum of atomic charges:   -0.0000000

LOEWDIN ATOMIC CHARGES
----------------------
   0 C :   -0.351182
   1 C :   -0.106790
   2 O :   -0.058524
   3 C :    0.026804
   4 O :   -0.164983
   5 C :   -0.247165
   6 C :   -0.272269
   7 H :    0.155599
   8 C :    0.032156
   9 O :   -0.154541
  10 O :   -0.028440
  11 C :   -0.099875
  12 C :   -0.352269
  13 S :    0.113559
  14 P :    0.588679
  15 S :   -0.351491
  16 O :   -0.269589
  17 C :   -0.215528
  18 O :   -0.251694
  19 C :   -0.211586
  20 H :    0.128409
  21 H :    0.132275
  22 H :    0.124556
  23 H :    0.118977
  24 H :    0.118133
  25 H :    0.134560
  26 H :    0.152055
  27 H :    0.127136
  28 H :    0.121071
  29 H :    0.135162
  30 H :    0.127907
  31 H :    0.130296
  32 H :    0.119528
  33 H :    0.107701
  34 H :    0.108141
  35 H :    0.113731
  36 H :    0.108492
  37 H :    0.111000

  Mayer bond orders larger than 0.100000
B(  0-C ,  1-C ) :   1.1555 B(  0-C , 20-H ) :   0.9469 B(  0-C , 21-H ) :   0.9429
B(  0-C , 22-H ) :   0.9482 B(  1-C ,  2-O ) :   0.9038 B(  1-C , 23-H ) :   0.9348
B(  1-C , 24-H ) :   0.9191 B(  2-O ,  3-C ) :   1.2390 B(  3-C ,  4-O ) :   2.0498
B(  3-C ,  5-C ) :   1.0061 B(  5-C ,  6-C ) :   1.0558 B(  5-C , 25-H ) :   0.9072
B(  5-C , 26-H ) :   0.8779 B(  6-C ,  7-H ) :   0.8304 B(  6-C ,  8-C ) :   0.9132
B(  6-C , 13-S ) :   1.0356 B(  8-C ,  9-O ) :   1.9251 B(  8-C , 10-O ) :   1.2868
B(  9-O , 14-P ) :   0.1208 B( 10-O , 11-C ) :   0.8844 B( 11-C , 12-C ) :   1.1577
B( 11-C , 27-H ) :   0.9325 B( 11-C , 28-H ) :   0.9262 B( 12-C , 29-H ) :   0.9394
B( 12-C , 30-H ) :   0.9426 B( 12-C , 31-H ) :   0.9443 B( 13-S , 14-P ) :   0.9296
B( 13-S , 15-S ) :   0.1097 B( 14-P , 15-S ) :   1.5779 B( 14-P , 16-O ) :   1.0820
B( 14-P , 18-O ) :   1.0930 B( 16-O , 17-C ) :   0.9412 B( 17-C , 32-H ) :   0.9612
B( 17-C , 33-H ) :   0.9334 B( 17-C , 34-H ) :   0.9509 B( 18-O , 19-C ) :   0.9310
B( 19-C , 35-H ) :   0.9541 B( 19-C , 36-H ) :   0.9338 B( 19-C , 37-H ) :   0.9541

Dispersion correction           -0.050244008
FINAL SINGLE POINT ENERGY     -1979.012787307304

DIPOLE MOMENT
-------------

Method             : SCF
Type of density    : Electron Density
Multiplicity       :   1
Irrep              :   0
Energy             : -1979.1455032179696900 Eh
Relativity type    :
Basis              : AO
                                X                 Y                 Z
Electronic contribution:    -21.554158936      -2.545365270      -7.930369345
Nuclear contribution   :     23.241469441       2.170850579       9.303850718
                        -----------------------------------------
Total Dipole Moment    :      1.687310505      -0.374514691       1.373481373
                        -----------------------------------------
Magnitude (a.u.)       :      2.207652391
Magnitude (Debye)      :      5.611406432

Rotational constants in cm-1:             0.019538             0.005217             0.004676
Rotational constants in MHz :           585.744950           156.407391           140.179921

                             ****ORCA TERMINATED NORMALLY****
TOTAL RUN TIME: 0 days 0 hours 0 minutes 30 seconds 955 msec
