                         Program Version 6.0.1  -  RELEASE   -
|  1> ! pbe def2-sv(p) def2/J RI DEFGRID1 loosescf d4 GCP(DFT/SV(P)) printgap
|  2> %output
|  3>     printlevel normal
|  4> end
|  5> * xyz 0 1
|  6> C 4.9897202981 -2.713504398 -1.1826042596
|  7> C 3.6926445812 -3.3084895367 -0.659155369
|  8> O 2.5539338347 -2.7080584056 -1.3118431231
|  9> C 2.0597196405 -1.5958401967 -0.8214555701
| 10> O 2.4750867716 -1.0305339377 0.1711191044
| 11> C 0.8618074933 -1.1154179842 -1.6097473497
| 12> C 0.6319981745 0.3821187857 -1.4034333249
| 13> H 1.2145584694 0.9853095177 -2.0996387273
| 14> C 0.9257632514 0.8272965034 0.014858031
| 15> O 0.1932148557 0.4918102769 0.9338261598
| 16> O 1.9111491422 1.6696353077 0.1001075337
| 17> C 2.2446709861 2.2071306545 1.3997194372
| 18> C 1.350764975 3.3856670429 1.7487588898
| 19> S -1.1231350176 0.8126573706 -1.6675179445
| 20> P -2.0608475916 0.3621971171 0.1895568545
| 21> S -2.3096249059 1.6186653689 1.6858812935
| 22> O -3.4321160489 0.2459507965 -0.6515424861
| 23> C -4.7101397296 0.1298126727 -0.0255997087
| 24> O -1.8833408137 -1.186649745 0.5840977733
| 25> C -1.2997347094 -1.6528003975 1.7980379804
| 26> H 5.828827392 -3.2288380611 -0.7271778221
| 27> H 5.0438640045 -2.824755158 -2.2618586026
| 28> H 5.046099741 -1.6569289333 -0.9306193292
| 29> H 3.6008263035 -3.1524415739 0.4192891253
| 30> H 3.6141422554 -4.3685258551 -0.8997963461
| 31> H -0.0018228935 -1.6783119364 -1.2413229881
| 32> H 0.9827235809 -1.3499673752 -2.6658022486
| 33> H 2.1481415925 1.4067097143 2.1374329781
| 34> H 3.286479183 2.5103748944 1.2992364383
| 35> H 1.6745568601 3.8112520292 2.6926106427
| 36> H 1.4094260089 4.1445497646 0.973382999
| 37> H 0.3151487361 3.0650809644 1.8502923736
| 38> H -5.4377843958 0.4190941513 -0.7798543925
| 39> H -4.770426619 0.7980640599 0.8367735389
| 40> H -4.8752018927 -0.8993021545 0.2923039315
| 41> H -1.4376973738 -0.9142239219 2.5895219
| 42> H -0.2334509095 -1.8267429596 1.6564608115
| 43> H -1.8156629095 -2.5788994535 2.0410658809
| 44> *
| 45>
| 46>                          ****END OF INPUT****

CARTESIAN COORDINATES (ANGSTROEM)
---------------------------------
  C      4.989720   -2.713504   -1.182604
  C      3.692645   -3.308490   -0.659155
  O      2.553934   -2.708058   -1.311843
  C      2.059720   -1.595840   -0.821456
  O      2.475087   -1.030534    0.171119
  C      0.861807   -1.115418   -1.609747
  C      0.631998    0.382119   -1.403433
  H      1.214558    0.985310   -2.099639
  C      0.925763    0.827297    0.014858
  O      0.193215    0.491810    0.933826
  O      1.911149    1.669635    0.100108
  C      2.244671    2.207131    1.399719
  C      1.350765    3.385667    1.748759
  S     -1.123135    0.812657   -1.667518
  P     -2.060848    0.362197    0.189557
  S     -2.309625    1.618665    1.685881
  O     -3.432116    0.245951   -0.651542
  C     -4.710140    0.129813   -0.025600
  O     -1.883341   -1.186650    0.584098
  C     -1.299735   -1.652800    1.798038
  H      5.828827   -3.228838   -0.727178
  H      5.043864   -2.824755   -2.261859
  H      5.046100   -1.656929   -0.930619
  H      3.600826   -3.152442    0.419289
  H      3.614142   -4.368526   -0.899796
  H     -0.001823   -1.678312   -1.241323
  H      0.982724   -1.349967   -2.665802
  H      2.148142    1.406710    2.137433
  H      3.286479    2.510375    1.299236
  H      1.674557    3.811252    2.692611
  H      1.409426    4.144550    0.973383
  H      0.315149    3.065081    1.850292
  H     -5.437784    0.419094   -0.779854
  H     -4.770427    0.798064    0.836774
  H     -4.875202   -0.899302    0.292304
  H     -1.437697   -0.914224    2.589522
  H     -0.233451   -1.826743    1.656461
  H     -1.815663   -2.578899    2.041066

 Total Charge           Charge          ....    0
 Multiplicity           Mult            ....    1
 Number of Electrons    NEL             ....  174
 Basis Dimension        Dim             ....  316

ORBITAL ENERGIES
----------------

  NO   OCC          E(Eh)            E(eV)
   0   2.0000     -88.032567     -2395.4879
   1   2.0000     -87.962527     -2393.5820
   2   2.0000     -76.413836     -2079.3262
   3   2.0000     -18.821206      -512.1511
   4   2.0000     -18.811466      -511.8860
   5   2.0000     -18.778598      -510.9916
   6   2.0000     -18.764172      -510.5991
   7   2.0000     -18.760122      -510.4889
   8   2.0000     -18.754311      -510.3307
   9   2.0000     -10.029318      -272.9116
  10   2.0000     -10.024931      -272.7922
  11   2.0000      -9.962797      -271.1015
  12   2.0000      -9.948579      -270.7146
  13   2.0000      -9.947611      -270.6883
  14   2.0000      -9.928950      -270.1805
  15   2.0000      -9.924374      -270.0559
  16   2.0000      -9.920521      -269.9511
  17   2.0000      -9.899956      -269.3915
  18   2.0000      -9.876796      -268.7613
  19   2.0000      -7.677392      -208.9125
  20   2.0000      -7.607542      -207.0117
  21   2.0000      -6.409053      -174.3992
  22   2.0000      -5.705904      -155.2655
  23   2.0000      -5.701763      -155.1528
  24   2.0000      -5.693901      -154.9389
  25   2.0000      -5.636675      -153.3817
  26   2.0000      -5.628414      -153.1569
  27   2.0000      -5.627191      -153.1237
  28   2.0000      -4.632004      -126.0432
  29   2.0000      -4.631090      -126.0184
  30   2.0000      -4.629444      -125.9736
  31   2.0000      -1.031259       -28.0620
  32   2.0000      -1.023049       -27.8386
  33   2.0000      -0.963621       -26.2215
  34   2.0000      -0.937619       -25.5139
  35   2.0000      -0.931555       -25.3489
  36   2.0000      -0.920129       -25.0380
  37   2.0000      -0.766035       -20.8449
  38   2.0000      -0.724571       -19.7166
  39   2.0000      -0.703579       -19.1454
  40   2.0000      -0.688799       -18.7432
  41   2.0000      -0.655914       -17.8483
  42   2.0000      -0.621085       -16.9006
  43   2.0000      -0.611713       -16.6456
  44   2.0000      -0.609162       -16.5761
  45   2.0000      -0.606227       -16.4963
  46   2.0000      -0.561925       -15.2908
  47   2.0000      -0.514565       -14.0020
  48   2.0000      -0.506089       -13.7714
  49   2.0000      -0.497165       -13.5285
  50   2.0000      -0.485278       -13.2051
  51   2.0000      -0.465412       -12.6645
  52   2.0000      -0.461356       -12.5541
  53   2.0000      -0.451004       -12.2724
  54   2.0000      -0.444522       -12.0961
  55   2.0000      -0.435644       -11.8545
  56   2.0000      -0.433829       -11.8051
  57   2.0000      -0.419668       -11.4198
  58   2.0000      -0.408944       -11.1279
  59   2.0000      -0.408193       -11.1075
  60   2.0000      -0.401299       -10.9199
  61   2.0000      -0.395503       -10.7622
  62   2.0000      -0.386693       -10.5225
  63   2.0000      -0.385387       -10.4869
  64   2.0000      -0.379690       -10.3319
  65   2.0000      -0.370207       -10.0739
  66   2.0000      -0.362198        -9.8559
  67   2.0000      -0.355936        -9.6855
  68   2.0000      -0.349691        -9.5156
  69   2.0000      -0.340616        -9.2686
  70   2.0000      -0.335627        -9.1329
  71   2.0000      -0.331827        -9.0295
  72   2.0000      -0.324855        -8.8398
  73   2.0000      -0.311251        -8.4696
  74   2.0000      -0.299558        -8.1514
  75   2.0000      -0.295384        -8.0378
  76   2.0000      -0.289455        -7.8765
  77   2.0000      -0.281883        -7.6704
  78   2.0000      -0.269411        -7.3310
  79   2.0000      -0.264641        -7.2013
  80   2.0000      -0.256766        -6.9870
  81   2.0000      -0.251459        -6.8425
  82   2.0000      -0.244045        -6.6408
  83   2.0000      -0.237377        -6.4593
  84   2.0000      -0.213579        -5.8118
  85   2.0000      -0.182261        -4.9596
  86   2.0000      -0.174280        -4.7424
  87   0.0000      -0.052950        -1.4408
  88   0.0000      -0.042350        -1.1524
  89   0.0000      -0.017092        -0.4651
  90   0.0000       0.012760         0.3472
  91   0.0000       0.034082         0.9274

MULLIKEN ATOMIC CHARGES
-----------------------
   0 C :   -0.307312
   1 C :   -0.015595
   2 O :   -0.220298
   3 C :    0.128769
   4 O :   -0.208781
   5 C :   -0.064415
   6 C :   -0.299912
   7 H :    0.131425
   8 C :    0.225066
   9 O :   -0.225080
  10 O :   -0.205106
  11 C :   -0.006825
  12 C :   -0.321788
  13 S :   -0.063167
  14 P :    0.648210
  15 S :   -0.330765
  16 O :   -0.401850
  17 C :   -0.096317
  18 O :   -0.394403
  19 C :   -0.098355
  20 H :    0.118990
  21 H :    0.118532
  22 H :    0.128066
  23 H :    0.113147
  24 H :    0.110160
  25 H :    0.146955
  26 H :    0.121921
  27 H :    0.114887
  28 H :    0.101809
  29 H :    0.109648
  30 H :    0.110721
  31 H :    0.153158
  32 H :    0.116272
  33 H :    0.113071
  34 H :    0.103707
  35 H :    0.119096
  36 H :    0.113587
  37 H :    0.112771
Sum of atomic charges:    0.0000000

LOEWDIN ATOMIC CHARGES
----------------------
   0 C :   -0.355248
   1 C :   -0.109028
   2 O :   -0.049888
   3 C :    0.040651
   4 O :   -0.153354
   5 C :   -0.254954
   6 C :   -0.262968
   7 H :    0.141301
   8 C :    0.020047
   9 O :   -0.164818
  10 O :   -0.027550
  11 C :   -0.102456
  12 C :   -0.362523
  13 S :    0.127596
  14 P :    0.589175
  15 S :   -0.328296
  16 O :   -0.276750
  17 C :   -0.218483
  18 O :   -0.259419
  19 C :   -0.219848
  20 H :    0.133764
  21 H :    0.127023
  22 H :    0.130876
  23 H :    0.121890
  24 H :    0.121529
  25 H :    0.154502
  26 H :    0.144832
  27 H :    0.124277
  28 H :    0.118215
  29 H :    0.130351
  30 H :    0.124399
  31 H :    0.132001
  32 H :    0.117782
  33 H :    0.104966
  34 H :    0.107963
  35 H :    0.110638
  36 H :    0.107502
  37 H :    0.114301

  Mayer bond orders larger than 0.100000
B(  0-C ,  1-C ) :   1.1749 B(  0-C , 20-H ) :   0.9434 B(  0-C , 21-H ) :   0.9483
B(  0-C , 22-H ) :   0.9465 B(  1-C ,  2-O ) :   0.9051 B(  1-C , 23-H ) :   0.9151
B(  1-C , 24-H ) :   0.9362 B(  2-O ,  3-C ) :   1.2602 B(  3-C ,  4-O ) :   1.9429
B(  3-C ,  5-C ) :   1.0112 B(  4-O ,  8-C ) :   0.1238 B(  5-C ,  6-C ) :   0.9987
B(  5-C , 25-H ) :   0.8662 B(  5-C , 26-H ) :   0.9051 B(  6-C ,  7-H ) :   0.8840
B(  6-C ,  8-C ) :   0.9165 B(  6-C , 13-S ) :   1.0263 B(  8-C ,  9-O ) :   1.8145
B(  8-C , 10-O ) :   1.2984 B(  9-O , 14-P ) :   0.1821 B( 10-O , 11-C ) :   0.8963
B( 11-C , 12-C ) :   1.1742 B( 11-C , 27-H ) :   0.9172 B( 11-C , 28-H ) :   0.9381
B( 12-C , 29-H ) :   0.9416 B( 12-C , 30-H ) :   0.9466 B( 12-C , 31-H ) :   0.9231
B( 13-S , 14-P ) :   0.9220 B( 14-P , 15-S ) :   1.5700 B( 14-P , 16-O ) :   1.0484
B( 14-P , 18-O ) :   1.0534 B( 16-O , 17-C ) :   0.9438 B( 17-C , 32-H ) :   0.9605
B( 17-C , 33-H ) :   0.9261 B( 17-C , 34-H ) :   0.9531 B( 18-O , 19-C ) :   0.9313
B( 19-C , 35-H ) :   0.9319 B( 19-C , 36-H ) :   0.9460 B( 19-C , 37-H ) :   0.9535

Dispersion correction           -0.052109486
FINAL SINGLE POINT ENERGY     -1979.005487753872

DIPOLE MOMENT
-------------

Method             : SCF
Type of density    : Electron Density
Multiplicity       :   1
Irrep              :   0
Energy             : -1979.1384909817652442 Eh
Relativity type    :
Basis              : AO
                                X                 Y                 Z
Electronic contribution:    -14.773427688       5.943547770      -5.111049064
Nuclear contribution   :     16.596346708      -7.316071346       4.689402967
                        -----------------------------------------
Total Dipole Moment    :      1.822919020      -1.372523575      -0.421646097
                        -----------------------------------------
Magnitude (a.u.)       :      2.320482740
Magnitude (Debye)      :      5.898198389

Rotational constants in cm-1:             0.014696             0.006566             0.005514
Rotational constants in MHz :           440.572591           196.852913           165.308391

                             ****ORCA TERMINATED NORMALLY****
TOTAL RUN TIME: 0 days 0 hours 0 minutes 31 seconds 790 msec
