                         Program Version 6.0.0  -   RELEASE  -
|  1> ! pbe def2-sv(p) def2/J RI DEFGRID1 loosescf d4 GCP(DFT/SV(P)) printgap
|  2> %output
|  3>     printlevel normal
|  4> end
|  5> * xyz 0 1
|  6> C 4.8724574076 0.3560932046 -1.3935722734
|  7> C 4.4978012204 1.1722022909 -0.1739476906
|  8> O 3.4829585073 0.53474428 0.6227383546
|  9> P 1.9946198152 0.3227970876 0.1134709221
| 10> S 1.2261865986 1.8046855731 -0.9147635435
| 11> O 1.2109470261 0.0773962221 1.4593329281
| 12> C 1.7269723751 -0.5805204837 2.6445670448
| 13> C 2.0439121548 -2.0430588609 2.4139944601
| 14> S 2.0575716322 -1.52506916 -0.9441243875
| 15> C 0.3584987847 -1.5164228881 -1.5413006002
| 16> S -0.863512732 -1.7794938842 -0.2102481989
| 17> P -2.0348656657 -0.0448183259 -0.4237058633
| 18> S -2.115310586 0.8028719816 -2.1800235026
| 19> O -1.4841168959 0.8458756397 0.7874879738
| 20> C -1.7124554847 2.264686244 0.8400083241
| 21> C -3.1613415386 2.5887847381 1.1391438264
| 22> O -3.4743610562 -0.5487156922 0.0187311929
| 23> C -3.696477236 -1.2204065066 1.2842528219
| 24> C -5.172212563 -1.1181837214 1.6100367801
| 25> H 4.044423592 0.3383589927 -2.1002393075
| 26> H 5.7335191944 0.808728544 -1.8747815553
| 27> H 5.1120485089 -0.6651640821 -1.1089757154
| 28> H 4.1333977158 2.1607312821 -0.4697247334
| 29> H 5.337499199 1.2757069067 0.5148921892
| 30> H 2.6108292578 -0.0340195902 2.9782205714
| 31> H 0.916112136 -0.4560710952 3.3640698181
| 32> H 2.8925796302 -2.148310216 1.7419352872
| 33> H 2.288903384 -2.5019124344 3.3669045412
| 34> H 1.1859420134 -2.5535466952 1.981654983
| 35> H 0.2764267207 -2.3465141609 -2.2382330664
| 36> H 0.1353985717 -0.5659961 -2.0347580191
| 37> H -1.0400987459 2.6110878556 1.6268052452
| 38> H -1.4030757589 2.7027602869 -0.1149837725
| 39> H -3.7940223377 2.2152934966 0.3338888801
| 40> H -3.4668656531 2.1312910689 2.0768502047
| 41> H -3.2788822175 3.6656791268 1.2085251411
| 42> H -3.3829418252 -2.2608379717 1.1668863924
| 43> H -3.0787689348 -0.7431726642 2.0497564241
| 44> H -5.7575595409 -1.561659947 0.8099408921
| 45> H -5.3692417577 -1.6470695345 2.5368751875
| 46> H -5.4646460532 -0.0774477826 1.7190066182
| 47> *
| 48>
| 49>                          ****END OF INPUT****

CARTESIAN COORDINATES (ANGSTROEM)
---------------------------------
  C      4.872457    0.356093   -1.393572
  C      4.497801    1.172202   -0.173948
  O      3.482959    0.534744    0.622738
  P      1.994620    0.322797    0.113471
  S      1.226187    1.804686   -0.914764
  O      1.210947    0.077396    1.459333
  C      1.726972   -0.580520    2.644567
  C      2.043912   -2.043059    2.413994
  S      2.057572   -1.525069   -0.944124
  C      0.358499   -1.516423   -1.541301
  S     -0.863513   -1.779494   -0.210248
  P     -2.034866   -0.044818   -0.423706
  S     -2.115311    0.802872   -2.180024
  O     -1.484117    0.845876    0.787488
  C     -1.712455    2.264686    0.840008
  C     -3.161342    2.588785    1.139144
  O     -3.474361   -0.548716    0.018731
  C     -3.696477   -1.220407    1.284253
  C     -5.172213   -1.118184    1.610037
  H      4.044424    0.338359   -2.100239
  H      5.733519    0.808729   -1.874782
  H      5.112049   -0.665164   -1.108976
  H      4.133398    2.160731   -0.469725
  H      5.337499    1.275707    0.514892
  H      2.610829   -0.034020    2.978221
  H      0.916112   -0.456071    3.364070
  H      2.892580   -2.148310    1.741935
  H      2.288903   -2.501912    3.366905
  H      1.185942   -2.553547    1.981655
  H      0.276427   -2.346514   -2.238233
  H      0.135399   -0.565996   -2.034758
  H     -1.040099    2.611088    1.626805
  H     -1.403076    2.702760   -0.114984
  H     -3.794022    2.215293    0.333889
  H     -3.466866    2.131291    2.076850
  H     -3.278882    3.665679    1.208525
  H     -3.382942   -2.260838    1.166886
  H     -3.078769   -0.743173    2.049756
  H     -5.757560   -1.561660    0.809941
  H     -5.369242   -1.647070    2.536875
  H     -5.464646   -0.077448    1.719007

 Total Charge           Charge          ....    0
 Multiplicity           Mult            ....    1
 Number of Electrons    NEL             ....  202
 Basis Dimension        Dim             ....  334

ORBITAL ENERGIES
----------------

  NO   OCC          E(Eh)            E(eV)
   0   2.0000     -88.041499     -2395.7310
   1   2.0000     -88.037232     -2395.6149
   2   2.0000     -87.980195     -2394.0628
   3   2.0000     -87.977086     -2393.9782
   4   2.0000     -76.425147     -2079.6340
   5   2.0000     -76.416658     -2079.4030
   6   2.0000     -18.797808      -511.5144
   7   2.0000     -18.787903      -511.2448
   8   2.0000     -18.786795      -511.2147
   9   2.0000     -18.777823      -510.9706
  10   2.0000      -9.956270      -270.9239
  11   2.0000      -9.955846      -270.9123
  12   2.0000      -9.955502      -270.9030
  13   2.0000      -9.952492      -270.8211
  14   2.0000      -9.937112      -270.4026
  15   2.0000      -9.890243      -269.1272
  16   2.0000      -9.886176      -269.0165
  17   2.0000      -9.885613      -269.0012
  18   2.0000      -9.878445      -268.8061
  19   2.0000      -7.686500      -209.1603
  20   2.0000      -7.682586      -209.0538
  21   2.0000      -7.625066      -207.4886
  22   2.0000      -7.622353      -207.4148
  23   2.0000      -6.422365      -174.7614
  24   2.0000      -6.414745      -174.5541
  25   2.0000      -5.714352      -155.4954
  26   2.0000      -5.710997      -155.4041
  27   2.0000      -5.710462      -155.3896
  28   2.0000      -5.707201      -155.3008
  29   2.0000      -5.703511      -155.2004
  30   2.0000      -5.699347      -155.0871
  31   2.0000      -5.654038      -153.8542
  32   2.0000      -5.651465      -153.7842
  33   2.0000      -5.645717      -153.6278
  34   2.0000      -5.645132      -153.6119
  35   2.0000      -5.643227      -153.5600
  36   2.0000      -5.642007      -153.5268
  37   2.0000      -4.645509      -126.4107
  38   2.0000      -4.643939      -126.3680
  39   2.0000      -4.642509      -126.3291
  40   2.0000      -4.637513      -126.1932
  41   2.0000      -4.636133      -126.1556
  42   2.0000      -4.635366      -126.1347
  43   2.0000      -0.988957       -26.9109
  44   2.0000      -0.977237       -26.5920
  45   2.0000      -0.944148       -25.6916
  46   2.0000      -0.934411       -25.4266
  47   2.0000      -0.760400       -20.6915
  48   2.0000      -0.719715       -19.5844
  49   2.0000      -0.709553       -19.3079
  50   2.0000      -0.691984       -18.8298
  51   2.0000      -0.686305       -18.6753
  52   2.0000      -0.672178       -18.2909
  53   2.0000      -0.647884       -17.6298
  54   2.0000      -0.630947       -17.1689
  55   2.0000      -0.597717       -16.2647
  56   2.0000      -0.581906       -15.8345
  57   2.0000      -0.579567       -15.7708
  58   2.0000      -0.570113       -15.5136
  59   2.0000      -0.556451       -15.1418
  60   2.0000      -0.501015       -13.6333
  61   2.0000      -0.496455       -13.5092
  62   2.0000      -0.471766       -12.8374
  63   2.0000      -0.469183       -12.7671
  64   2.0000      -0.452012       -12.2999
  65   2.0000      -0.445692       -12.1279
  66   2.0000      -0.443567       -12.0701
  67   2.0000      -0.435010       -11.8372
  68   2.0000      -0.427746       -11.6396
  69   2.0000      -0.415967       -11.3190
  70   2.0000      -0.405358       -11.0304
  71   2.0000      -0.398605       -10.8466
  72   2.0000      -0.391123       -10.6430
  73   2.0000      -0.387337       -10.5400
  74   2.0000      -0.378115       -10.2890
  75   2.0000      -0.367363        -9.9964
  76   2.0000      -0.359914        -9.7938
  77   2.0000      -0.358281        -9.7493
  78   2.0000      -0.355736        -9.6801
  79   2.0000      -0.351441        -9.5632
  80   2.0000      -0.345085        -9.3903
  81   2.0000      -0.341102        -9.2818
  82   2.0000      -0.339774        -9.2457
  83   2.0000      -0.335274        -9.1233
  84   2.0000      -0.331427        -9.0186
  85   2.0000      -0.320188        -8.7128
  86   2.0000      -0.311678        -8.4812
  87   2.0000      -0.306452        -8.3390
  88   2.0000      -0.296716        -8.0741
  89   2.0000      -0.294779        -8.0213
  90   2.0000      -0.272517        -7.4156
  91   2.0000      -0.270805        -7.3690
  92   2.0000      -0.263735        -7.1766
  93   2.0000      -0.259087        -7.0501
  94   2.0000      -0.255898        -6.9633
  95   2.0000      -0.230563        -6.2739
  96   2.0000      -0.215204        -5.8560
  97   2.0000      -0.211487        -5.7549
  98   2.0000      -0.199172        -5.4197
  99   2.0000      -0.189649        -5.1606
 100   2.0000      -0.183421        -4.9911
 101   0.0000      -0.040330        -1.0974
 102   0.0000      -0.028890        -0.7861
 103   0.0000      -0.008712        -0.2371
 104   0.0000       0.009473         0.2578
 105   0.0000       0.023153         0.6300

MULLIKEN ATOMIC CHARGES
-----------------------
   0 C :   -0.323623
   1 C :    0.001019
   2 O :   -0.385793
   3 P :    0.608439
   4 S :   -0.303496
   5 O :   -0.347791
   6 C :    0.008110
   7 C :   -0.319659
   8 S :   -0.106329
   9 C :   -0.346394
  10 S :   -0.117554
  11 P :    0.613740
  12 S :   -0.298243
  13 O :   -0.371717
  14 C :   -0.007600
  15 C :   -0.314357
  16 O :   -0.375134
  17 C :   -0.036173
  18 C :   -0.276627
  19 H :    0.134846
  20 H :    0.115948
  21 H :    0.117117
  22 H :    0.113581
  23 H :    0.103908
  24 H :    0.107586
  25 H :    0.105403
  26 H :    0.121442
  27 H :    0.109767
  28 H :    0.127994
  29 H :    0.184591
  30 H :    0.209826
  31 H :    0.098932
  32 H :    0.125290
  33 H :    0.130519
  34 H :    0.107259
  35 H :    0.111305
  36 H :    0.112641
  37 H :    0.106987
  38 H :    0.124097
  39 H :    0.109324
  40 H :    0.120822
Sum of atomic charges:    0.0000000

LOEWDIN ATOMIC CHARGES
----------------------
   0 C :   -0.372127
   1 C :   -0.116335
   2 O :   -0.248183
   3 P :    0.568780
   4 S :   -0.294214
   5 O :   -0.230353
   6 C :   -0.106806
   7 C :   -0.371534
   8 S :    0.080497
   9 C :   -0.477152
  10 S :    0.068390
  11 P :    0.567708
  12 S :   -0.297310
  13 O :   -0.244283
  14 C :   -0.124252
  15 C :   -0.367787
  16 O :   -0.248824
  17 C :   -0.123547
  18 C :   -0.348977
  19 H :    0.124267
  20 H :    0.132833
  21 H :    0.123037
  22 H :    0.113705
  23 H :    0.118088
  24 H :    0.113255
  25 H :    0.120468
  26 H :    0.117260
  27 H :    0.129189
  28 H :    0.123072
  29 H :    0.138425
  30 H :    0.126676
  31 H :    0.115925
  32 H :    0.109330
  33 H :    0.124677
  34 H :    0.118394
  35 H :    0.130495
  36 H :    0.110678
  37 H :    0.107377
  38 H :    0.131540
  39 H :    0.129706
  40 H :    0.127911

  Mayer bond orders larger than 0.100000
B(  0-C ,  1-C ) :   1.1671 B(  0-C , 19-H ) :   0.9331 B(  0-C , 20-H ) :   0.9368
B(  0-C , 21-H ) :   0.9440 B(  1-C ,  2-O ) :   0.9034 B(  1-C , 22-H ) :   0.9167
B(  1-C , 23-H ) :   0.9342 B(  2-O ,  3-P ) :   1.0761 B(  3-P ,  4-S ) :   1.6454
B(  3-P ,  5-O ) :   1.1409 B(  3-P ,  8-S ) :   0.9361 B(  4-S ,  8-S ) :   0.1062
B(  5-O ,  6-C ) :   0.9009 B(  6-C ,  7-C ) :   1.1707 B(  6-C , 24-H ) :   0.9276
B(  6-C , 25-H ) :   0.9341 B(  7-C , 26-H ) :   0.9398 B(  7-C , 27-H ) :   0.9352
B(  7-C , 28-H ) :   0.9375 B(  8-S ,  9-C ) :   1.0090 B(  9-C , 10-S ) :   0.9983
B(  9-C , 29-H ) :   0.9118 B(  9-C , 30-H ) :   0.8454 B( 10-S , 11-P ) :   0.9667
B( 10-S , 12-S ) :   0.1083 B( 11-P , 12-S ) :   1.6459 B( 11-P , 13-O ) :   1.0910
B( 11-P , 16-O ) :   1.0987 B( 13-O , 14-C ) :   0.9072 B( 14-C , 15-C ) :   1.1537
B( 14-C , 31-H ) :   0.9352 B( 14-C , 32-H ) :   0.9097 B( 15-C , 33-H ) :   0.9343
B( 15-C , 34-H ) :   0.9437 B( 15-C , 35-H ) :   0.9395 B( 16-O , 17-C ) :   0.9045
B( 17-C , 18-C ) :   1.1681 B( 17-C , 36-H ) :   0.9229 B( 17-C , 37-H ) :   0.9142
B( 18-C , 38-H ) :   0.9486 B( 18-C , 39-H ) :   0.9407 B( 18-C , 40-H ) :   0.9501

Dispersion correction           -0.067866156
FINAL SINGLE POINT ENERGY     -2929.513372997926

DIPOLE MOMENT
-------------

Method             : SCF
Type of density    : Electron Density
Multiplicity       :   1
Irrep              :   0
Energy             : -2929.6319927723743604 Eh
Relativity type    :
Basis              : AO
                                X                 Y                 Z
Electronic contribution:      1.991506611      -0.768308487     -15.049179790
Nuclear contribution   :     -1.261164069       0.111672131      16.893362819
                        -----------------------------------------
Total Dipole Moment    :      0.730342541      -0.656636356       1.844183029
                        -----------------------------------------
Magnitude (a.u.)       :      2.089397659
Magnitude (Debye)      :      5.310826790

Rotational constants in cm-1:             0.012960             0.005308             0.005035
Rotational constants in MHz :           388.544410           159.121621           150.948099

                             ****ORCA TERMINATED NORMALLY****
TOTAL RUN TIME: 0 days 0 hours 0 minutes 21 seconds 605 msec
