                         Program Version 6.0.0  -   RELEASE  -
|  1> ! pbe def2-sv(p) def2/J RI DEFGRID1 loosescf d4 GCP(DFT/SV(P)) printgap
|  2> %output
|  3>     printlevel normal
|  4> end
|  5> * xyz 0 1
|  6> C 3.9454086505 -2.0742389638 -2.2293630119
|  7> C 4.4949479283 -1.7459236355 -0.8566455373
|  8> O 3.4579824595 -1.4050372733 0.0830468558
|  9> P 2.5514055873 -0.1070465237 -0.0621884454
| 10> S 3.4487380646 1.5153896939 -0.6777410662
| 11> O 1.9720342992 0.0438991319 1.3945918405
| 12> C 1.347835021 -1.0446428242 2.1227988257
| 13> C 0.4233251426 -0.4393289749 3.1583608677
| 14> S 0.9157363487 -0.7752269888 -1.2633990693
| 15> C 0.2655813168 0.8699506514 -1.6378208428
| 16> S -0.3474315231 1.7402032389 -0.1672724334
| 17> P -2.1815448603 0.699130056 -0.0292387116
| 18> S -3.2812047167 0.6193985399 -1.6512457292
| 19> O -2.7402502904 1.534543605 1.194954558
| 20> C -4.1539754296 1.6788996557 1.4447675044
| 21> C -4.795691558 0.3629016247 1.8328060408
| 22> O -1.814735632 -0.7173739105 0.5933662628
| 23> C -2.1049769152 -1.9981753572 -0.0026074393
| 24> C -2.6405196179 -2.9243913795 1.0710426198
| 25> H 3.1640053112 -2.8264042156 -2.1561922108
| 26> H 3.5302440146 -1.1785126356 -2.6887556648
| 27> H 4.7492094673 -2.4479064622 -2.8554924262
| 28> H 5.1957866725 -0.9077459878 -0.9131514268
| 29> H 4.9817950496 -2.6086828204 -0.3998191685
| 30> H 0.8007106786 -1.6730167572 1.4138477966
| 31> H 2.1450452752 -1.6302268281 2.5843403479
| 32> H -0.3748338228 0.1177095652 2.6722600264
| 33> H -0.0081151111 -1.2329885349 3.7599230205
| 34> H 0.9786974635 0.239476854 3.7992532208
| 35> H -0.5448967572 0.7422566199 -2.3558307605
| 36> H 1.0673169614 1.4828451246 -2.0495297482
| 37> H -4.2026615426 2.410140552 2.2527118372
| 38> H -4.6247898009 2.0873526398 0.5451803999
| 39> H -5.8322643838 0.5346113829 2.1058947987
| 40> H -4.7632686901 -0.3228130964 0.9864949055
| 41> H -4.2680309799 -0.07852117 2.6743485373
| 42> H -2.828019907 -1.8549007689 -0.8124458134
| 43> H -1.1724476378 -2.3794277114 -0.4266514518
| 44> H -1.9267616243 -3.0000875212 1.8862023922
| 45> H -3.5839117853 -2.5543314267 1.4619804898
| 46> H -2.7960674478 -3.9074952533 0.6387468079
| 47> *
| 48>
| 49>                          ****END OF INPUT****

CARTESIAN COORDINATES (ANGSTROEM)
---------------------------------
  C      3.945409   -2.074239   -2.229363
  C      4.494948   -1.745924   -0.856646
  O      3.457982   -1.405037    0.083047
  P      2.551406   -0.107047   -0.062188
  S      3.448738    1.515390   -0.677741
  O      1.972034    0.043899    1.394592
  C      1.347835   -1.044643    2.122799
  C      0.423325   -0.439329    3.158361
  S      0.915736   -0.775227   -1.263399
  C      0.265581    0.869951   -1.637821
  S     -0.347432    1.740203   -0.167272
  P     -2.181545    0.699130   -0.029239
  S     -3.281205    0.619399   -1.651246
  O     -2.740250    1.534544    1.194955
  C     -4.153975    1.678900    1.444768
  C     -4.795692    0.362902    1.832806
  O     -1.814736   -0.717374    0.593366
  C     -2.104977   -1.998175   -0.002607
  C     -2.640520   -2.924391    1.071043
  H      3.164005   -2.826404   -2.156192
  H      3.530244   -1.178513   -2.688756
  H      4.749209   -2.447906   -2.855492
  H      5.195787   -0.907746   -0.913151
  H      4.981795   -2.608683   -0.399819
  H      0.800711   -1.673017    1.413848
  H      2.145045   -1.630227    2.584340
  H     -0.374834    0.117710    2.672260
  H     -0.008115   -1.232989    3.759923
  H      0.978697    0.239477    3.799253
  H     -0.544897    0.742257   -2.355831
  H      1.067317    1.482845   -2.049530
  H     -4.202662    2.410141    2.252712
  H     -4.624790    2.087353    0.545180
  H     -5.832264    0.534611    2.105895
  H     -4.763269   -0.322813    0.986495
  H     -4.268031   -0.078521    2.674349
  H     -2.828020   -1.854901   -0.812446
  H     -1.172448   -2.379428   -0.426651
  H     -1.926762   -3.000088    1.886202
  H     -3.583912   -2.554331    1.461980
  H     -2.796067   -3.907495    0.638747

 Total Charge           Charge          ....    0
 Multiplicity           Mult            ....    1
 Number of Electrons    NEL             ....  202
 Basis Dimension        Dim             ....  334

ORBITAL ENERGIES
----------------

  NO   OCC          E(Eh)            E(eV)
   0   2.0000     -88.042974     -2395.7711
   1   2.0000     -88.038678     -2395.6542
   2   2.0000     -87.993243     -2394.4179
   3   2.0000     -87.987663     -2394.2660
   4   2.0000     -76.429657     -2079.7567
   5   2.0000     -76.427158     -2079.6887
   6   2.0000     -18.797879      -511.5163
   7   2.0000     -18.796785      -511.4865
   8   2.0000     -18.796594      -511.4813
   9   2.0000     -18.789606      -511.2912
  10   2.0000      -9.959351      -271.0077
  11   2.0000      -9.956044      -270.9177
  12   2.0000      -9.953311      -270.8434
  13   2.0000      -9.953102      -270.8377
  14   2.0000      -9.952890      -270.8319
  15   2.0000      -9.893097      -269.2048
  16   2.0000      -9.892729      -269.1948
  17   2.0000      -9.886313      -269.0203
  18   2.0000      -9.881929      -268.9010
  19   2.0000      -7.687713      -209.1933
  20   2.0000      -7.683981      -209.0918
  21   2.0000      -7.638204      -207.8461
  22   2.0000      -7.632952      -207.7032
  23   2.0000      -6.427286      -174.8954
  24   2.0000      -6.424553      -174.8210
  25   2.0000      -5.715399      -155.5239
  26   2.0000      -5.712298      -155.4395
  27   2.0000      -5.711879      -155.4281
  28   2.0000      -5.708773      -155.3436
  29   2.0000      -5.704845      -155.2367
  30   2.0000      -5.700602      -155.1213
  31   2.0000      -5.666976      -154.2062
  32   2.0000      -5.661883      -154.0677
  33   2.0000      -5.659188      -153.9943
  34   2.0000      -5.658145      -153.9659
  35   2.0000      -5.653485      -153.8391
  36   2.0000      -5.653160      -153.8303
  37   2.0000      -4.649826      -126.5282
  38   2.0000      -4.648935      -126.5039
  39   2.0000      -4.647824      -126.4737
  40   2.0000      -4.647468      -126.4640
  41   2.0000      -4.646216      -126.4300
  42   2.0000      -4.644842      -126.3926
  43   2.0000      -0.990057       -26.9408
  44   2.0000      -0.988965       -26.9111
  45   2.0000      -0.950834       -25.8735
  46   2.0000      -0.944888       -25.7117
  47   2.0000      -0.764419       -20.8009
  48   2.0000      -0.726268       -19.7628
  49   2.0000      -0.712471       -19.3873
  50   2.0000      -0.694519       -18.8988
  51   2.0000      -0.689891       -18.7729
  52   2.0000      -0.675954       -18.3936
  53   2.0000      -0.653017       -17.7695
  54   2.0000      -0.639477       -17.4011
  55   2.0000      -0.607026       -16.5180
  56   2.0000      -0.593397       -16.1472
  57   2.0000      -0.574260       -15.6264
  58   2.0000      -0.569866       -15.5068
  59   2.0000      -0.560714       -15.2578
  60   2.0000      -0.508846       -13.8464
  61   2.0000      -0.501906       -13.6576
  62   2.0000      -0.483328       -13.1520
  63   2.0000      -0.475392       -12.9361
  64   2.0000      -0.463479       -12.6119
  65   2.0000      -0.447708       -12.1828
  66   2.0000      -0.440588       -11.9890
  67   2.0000      -0.439580       -11.9616
  68   2.0000      -0.430453       -11.7132
  69   2.0000      -0.419962       -11.4277
  70   2.0000      -0.410524       -11.1709
  71   2.0000      -0.399277       -10.8649
  72   2.0000      -0.391024       -10.6403
  73   2.0000      -0.386237       -10.5100
  74   2.0000      -0.378473       -10.2988
  75   2.0000      -0.376832       -10.2541
  76   2.0000      -0.366506        -9.9731
  77   2.0000      -0.364257        -9.9119
  78   2.0000      -0.363741        -9.8979
  79   2.0000      -0.355888        -9.6842
  80   2.0000      -0.352339        -9.5876
  81   2.0000      -0.349523        -9.5110
  82   2.0000      -0.344740        -9.3809
  83   2.0000      -0.340546        -9.2667
  84   2.0000      -0.337427        -9.1819
  85   2.0000      -0.322806        -8.7840
  86   2.0000      -0.310708        -8.4548
  87   2.0000      -0.301454        -8.2030
  88   2.0000      -0.301042        -8.1918
  89   2.0000      -0.296598        -8.0708
  90   2.0000      -0.288152        -7.8410
  91   2.0000      -0.281253        -7.6533
  92   2.0000      -0.271182        -7.3792
  93   2.0000      -0.265752        -7.2315
  94   2.0000      -0.261194        -7.1075
  95   2.0000      -0.235088        -6.3971
  96   2.0000      -0.220226        -5.9927
  97   2.0000      -0.215958        -5.8765
  98   2.0000      -0.207869        -5.6564
  99   2.0000      -0.202845        -5.5197
 100   2.0000      -0.200161        -5.4467
 101   0.0000      -0.045583        -1.2404
 102   0.0000      -0.024625        -0.6701
 103   0.0000      -0.002504        -0.0681
 104   0.0000       0.004379         0.1192
 105   0.0000       0.011353         0.3089

MULLIKEN ATOMIC CHARGES
-----------------------
   0 C :   -0.318264
   1 C :    0.000606
   2 O :   -0.385585
   3 P :    0.605449
   4 S :   -0.308035
   5 O :   -0.350288
   6 C :   -0.016453
   7 C :   -0.286775
   8 S :   -0.109730
   9 C :   -0.374315
  10 S :   -0.043670
  11 P :    0.630174
  12 S :   -0.326015
  13 O :   -0.383491
  14 C :    0.000547
  15 C :   -0.327288
  16 O :   -0.381371
  17 C :   -0.020013
  18 C :   -0.295919
  19 H :    0.115876
  20 H :    0.130095
  21 H :    0.114761
  22 H :    0.113915
  23 H :    0.105169
  24 H :    0.106256
  25 H :    0.105055
  26 H :    0.130358
  27 H :    0.102973
  28 H :    0.117739
  29 H :    0.184460
  30 H :    0.196800
  31 H :    0.110941
  32 H :    0.116780
  33 H :    0.117266
  34 H :    0.128854
  35 H :    0.122487
  36 H :    0.112023
  37 H :    0.112329
  38 H :    0.115576
  39 H :    0.118073
  40 H :    0.112648
Sum of atomic charges:   -0.0000000

LOEWDIN ATOMIC CHARGES
----------------------
   0 C :   -0.371048
   1 C :   -0.114986
   2 O :   -0.250207
   3 P :    0.570765
   4 S :   -0.306277
   5 O :   -0.232596
   6 C :   -0.113191
   7 C :   -0.353991
   8 S :    0.077768
   9 C :   -0.487666
  10 S :    0.108535
  11 P :    0.571926
  12 S :   -0.318417
  13 O :   -0.245630
  14 C :   -0.112476
  15 C :   -0.367437
  16 O :   -0.243103
  17 C :   -0.128424
  18 C :   -0.352712
  19 H :    0.122524
  20 H :    0.122392
  21 H :    0.131934
  22 H :    0.114084
  23 H :    0.118820
  24 H :    0.102567
  25 H :    0.113849
  26 H :    0.123323
  27 H :    0.125877
  28 H :    0.128662
  29 H :    0.128244
  30 H :    0.131778
  31 H :    0.122029
  32 H :    0.114502
  33 H :    0.133328
  34 H :    0.120702
  35 H :    0.126725
  36 H :    0.105511
  37 H :    0.101933
  38 H :    0.124117
  39 H :    0.124685
  40 H :    0.131582

  Mayer bond orders larger than 0.100000
B(  0-C ,  1-C ) :   1.1661 B(  0-C , 19-H ) :   0.9437 B(  0-C , 20-H ) :   0.9347
B(  0-C , 21-H ) :   0.9367 B(  1-C ,  2-O ) :   0.9060 B(  1-C , 22-H ) :   0.9198
B(  1-C , 23-H ) :   0.9346 B(  2-O ,  3-P ) :   1.0887 B(  3-P ,  4-S ) :   1.6419
B(  3-P ,  5-O ) :   1.1449 B(  3-P ,  8-S ) :   0.9381 B(  4-S ,  8-S ) :   0.1063
B(  5-O ,  6-C ) :   0.8881 B(  6-C ,  7-C ) :   1.1688 B(  6-C , 24-H ) :   0.9078
B(  6-C , 25-H ) :   0.9315 B(  7-C , 26-H ) :   0.9366 B(  7-C , 27-H ) :   0.9389
B(  7-C , 28-H ) :   0.9468 B(  8-S ,  9-C ) :   0.9941 B(  9-C , 10-S ) :   1.0096
B(  9-C , 29-H ) :   0.8769 B(  9-C , 30-H ) :   0.8791 B( 10-S , 11-P ) :   0.9749
B( 11-P , 12-S ) :   1.5934 B( 11-P , 13-O ) :   1.1066 B( 11-P , 16-O ) :   1.0860
B( 13-O , 14-C ) :   0.9066 B( 14-C , 15-C ) :   1.1608 B( 14-C , 31-H ) :   0.9346
B( 14-C , 32-H ) :   0.9197 B( 15-C , 33-H ) :   0.9362 B( 15-C , 34-H ) :   0.9279
B( 15-C , 35-H ) :   0.9441 B( 16-O , 17-C ) :   0.8986 B( 17-C , 18-C ) :   1.1638
B( 17-C , 36-H ) :   0.9012 B( 17-C , 37-H ) :   0.9113 B( 18-C , 38-H ) :   0.9497
B( 18-C , 39-H ) :   0.9459 B( 18-C , 40-H ) :   0.9405

Dispersion correction           -0.066109127
FINAL SINGLE POINT ENERGY     -2929.524569807553

DIPOLE MOMENT
-------------

Method             : SCF
Type of density    : Electron Density
Multiplicity       :   1
Irrep              :   0
Energy             : -2929.6443582551582949 Eh
Relativity type    :
Basis              : AO
                                X                 Y                 Z
Electronic contribution:      9.451535999      18.570649097     -10.777912759
Nuclear contribution   :    -10.014421966     -20.317792533      11.612644937
                        -----------------------------------------
Total Dipole Moment    :     -0.562885967      -1.747143436       0.834732177
                        -----------------------------------------
Magnitude (a.u.)       :      2.016464382
Magnitude (Debye)      :      5.125445133

Rotational constants in cm-1:             0.013521             0.004781             0.004625
Rotational constants in MHz :           405.356512           143.321489           138.662354

                             ****ORCA TERMINATED NORMALLY****
TOTAL RUN TIME: 0 days 0 hours 0 minutes 21 seconds 994 msec
