                         Program Version 6.0.0  -   RELEASE  -
|  1> ! pbe def2-sv(p) def2/J RI DEFGRID1 loosescf d4 GCP(DFT/SV(P)) printgap
|  2> %output
|  3>     printlevel normal
|  4> end
|  5> * xyz 0 1
|  6> C 4.3917456653 -1.4054244123 1.383634632
|  7> C 3.9464545468 0.0322303323 1.2040953388
|  8> O 3.5105272911 0.2742716414 -0.157525228
|  9> P 1.9840686551 0.3317588783 -0.5899267652
| 10> S 1.8184197752 0.8691534254 -2.4601720581
| 11> O 1.2490434628 1.2500645332 0.4955537633
| 12> C 1.1290069048 2.6712974305 0.3241948344
| 13> C 2.4552644896 3.3764959397 0.5184578408
| 14> S 1.243376339 -1.5649397253 -0.062561899
| 15> C -0.118755231 -1.7462666783 -1.2595694257
| 16> S -1.7052895333 -2.0507036649 -0.4614903962
| 17> P -2.0686751485 -0.0552031702 0.1851137104
| 18> S -1.6639095689 1.3410141618 -1.127868913
| 19> O -1.2375422878 0.1760168765 1.5022836888
| 20> C -1.361926546 -0.6772597259 2.6726820253
| 21> C -0.0327059971 -0.6817675294 3.3985029757
| 22> O -3.5467015052 -0.1348203345 0.76168895
| 23> C -4.6790996605 -0.711571611 0.0839228559
| 24> C -4.9049884603 -0.119790845 -1.2912298654
| 25> H 3.5535578871 -2.0868743992 1.2573951576
| 26> H 5.1548785836 -1.6505995989 0.6503672505
| 27> H 4.8016356144 -1.5245923981 2.3816735639
| 28> H 4.7807050004 0.7216500261 1.3469461578
| 29> H 3.1340493028 0.286457073 1.8895714796
| 30> H 0.7244251417 2.8691392748 -0.674205835
| 31> H 0.3902033267 2.9656564017 1.0718434067
| 32> H 3.1596536202 3.0517103772 -0.2471332046
| 33> H 2.304756958 4.4474804533 0.4254264659
| 34> H 2.8648446902 3.1535602039 1.5003033536
| 35> H 0.0892861594 -2.6194710512 -1.8726152932
| 36> H -0.1735935987 -0.8397616808 -1.8698077466
| 37> H -2.1593384857 -0.260290434 3.2901546113
| 38> H -1.64109864 -1.6840393289 2.3480555185
| 39> H 0.2552941256 0.3343476468 3.6528607127
| 40> H -0.1271385428 -1.2682868197 4.3065671619
| 41> H 0.7371206038 -1.1199032736 2.7681733076
| 42> H -4.5220379346 -1.7916400583 0.019195197
| 43> H -5.5135947233 -0.4954896319 0.7532558472
| 44> H -4.0669365958 -0.3561180207 -1.9456206316
| 45> H -5.8134013506 -0.5329508616 -1.7174769829
| 46> H -4.9948334549 0.9623415218 -1.2298012183
| 47> *
| 48>
| 49>                          ****END OF INPUT****

CARTESIAN COORDINATES (ANGSTROEM)
---------------------------------
  C      4.391746   -1.405424    1.383635
  C      3.946455    0.032230    1.204095
  O      3.510527    0.274272   -0.157525
  P      1.984069    0.331759   -0.589927
  S      1.818420    0.869153   -2.460172
  O      1.249043    1.250065    0.495554
  C      1.129007    2.671297    0.324195
  C      2.455264    3.376496    0.518458
  S      1.243376   -1.564940   -0.062562
  C     -0.118755   -1.746267   -1.259569
  S     -1.705290   -2.050704   -0.461490
  P     -2.068675   -0.055203    0.185114
  S     -1.663910    1.341014   -1.127869
  O     -1.237542    0.176017    1.502284
  C     -1.361927   -0.677260    2.672682
  C     -0.032706   -0.681768    3.398503
  O     -3.546702   -0.134820    0.761689
  C     -4.679100   -0.711572    0.083923
  C     -4.904988   -0.119791   -1.291230
  H      3.553558   -2.086874    1.257395
  H      5.154879   -1.650600    0.650367
  H      4.801636   -1.524592    2.381674
  H      4.780705    0.721650    1.346946
  H      3.134049    0.286457    1.889571
  H      0.724425    2.869139   -0.674206
  H      0.390203    2.965656    1.071843
  H      3.159654    3.051710   -0.247133
  H      2.304757    4.447480    0.425426
  H      2.864845    3.153560    1.500303
  H      0.089286   -2.619471   -1.872615
  H     -0.173594   -0.839762   -1.869808
  H     -2.159338   -0.260290    3.290155
  H     -1.641099   -1.684039    2.348056
  H      0.255294    0.334348    3.652861
  H     -0.127139   -1.268287    4.306567
  H      0.737121   -1.119903    2.768173
  H     -4.522038   -1.791640    0.019195
  H     -5.513595   -0.495490    0.753256
  H     -4.066937   -0.356118   -1.945621
  H     -5.813401   -0.532951   -1.717477
  H     -4.994833    0.962342   -1.229801

 Total Charge           Charge          ....    0
 Multiplicity           Mult            ....    1
 Number of Electrons    NEL             ....  202
 Basis Dimension        Dim             ....  334

ORBITAL ENERGIES
----------------

  NO   OCC          E(Eh)            E(eV)
   0   2.0000     -88.047400     -2395.8916
   1   2.0000     -88.040748     -2395.7105
   2   2.0000     -87.980105     -2394.0604
   3   2.0000     -87.977529     -2393.9903
   4   2.0000     -76.424799     -2079.6245
   5   2.0000     -76.418966     -2079.4658
   6   2.0000     -18.795374      -511.4481
   7   2.0000     -18.790205      -511.3075
   8   2.0000     -18.787991      -511.2472
   9   2.0000     -18.779212      -511.0084
  10   2.0000      -9.960764      -271.0462
  11   2.0000      -9.957419      -270.9552
  12   2.0000      -9.955997      -270.9165
  13   2.0000      -9.954096      -270.8647
  14   2.0000      -9.936822      -270.3947
  15   2.0000      -9.889042      -269.0945
  16   2.0000      -9.886448      -269.0239
  17   2.0000      -9.883673      -268.9484
  18   2.0000      -9.878427      -268.8057
  19   2.0000      -7.692418      -209.3213
  20   2.0000      -7.686014      -209.1471
  21   2.0000      -7.624997      -207.4867
  22   2.0000      -7.622792      -207.4267
  23   2.0000      -6.422118      -174.7547
  24   2.0000      -6.416957      -174.6143
  25   2.0000      -5.720108      -155.6520
  26   2.0000      -5.716734      -155.5602
  27   2.0000      -5.713902      -155.4832
  28   2.0000      -5.710509      -155.3908
  29   2.0000      -5.709794      -155.3714
  30   2.0000      -5.702867      -155.1829
  31   2.0000      -5.654116      -153.8563
  32   2.0000      -5.651945      -153.7973
  33   2.0000      -5.645479      -153.6213
  34   2.0000      -5.645076      -153.6103
  35   2.0000      -5.643525      -153.5681
  36   2.0000      -5.642552      -153.5417
  37   2.0000      -4.644940      -126.3952
  38   2.0000      -4.644226      -126.3758
  39   2.0000      -4.642047      -126.3165
  40   2.0000      -4.639816      -126.2558
  41   2.0000      -4.638364      -126.2163
  42   2.0000      -4.637486      -126.1924
  43   2.0000      -0.988510       -26.8987
  44   2.0000      -0.978962       -26.6389
  45   2.0000      -0.943833       -25.6830
  46   2.0000      -0.935831       -25.4653
  47   2.0000      -0.764033       -20.7904
  48   2.0000      -0.721276       -19.6269
  49   2.0000      -0.711009       -19.3475
  50   2.0000      -0.690973       -18.8023
  51   2.0000      -0.688365       -18.7314
  52   2.0000      -0.673303       -18.3215
  53   2.0000      -0.648865       -17.6565
  54   2.0000      -0.632966       -17.2239
  55   2.0000      -0.592093       -16.1117
  56   2.0000      -0.585016       -15.9191
  57   2.0000      -0.575595       -15.6627
  58   2.0000      -0.570815       -15.5327
  59   2.0000      -0.562029       -15.2936
  60   2.0000      -0.507644       -13.8137
  61   2.0000      -0.495338       -13.4788
  62   2.0000      -0.475072       -12.9274
  63   2.0000      -0.470664       -12.8074
  64   2.0000      -0.455575       -12.3968
  65   2.0000      -0.449213       -12.2237
  66   2.0000      -0.438986       -11.9454
  67   2.0000      -0.435633       -11.8542
  68   2.0000      -0.426589       -11.6081
  69   2.0000      -0.417026       -11.3478
  70   2.0000      -0.412206       -11.2167
  71   2.0000      -0.397210       -10.8086
  72   2.0000      -0.394165       -10.7258
  73   2.0000      -0.384770       -10.4701
  74   2.0000      -0.382124       -10.3981
  75   2.0000      -0.365787        -9.9536
  76   2.0000      -0.358885        -9.7658
  77   2.0000      -0.356584        -9.7031
  78   2.0000      -0.353882        -9.6296
  79   2.0000      -0.349577        -9.5125
  80   2.0000      -0.347049        -9.4437
  81   2.0000      -0.344221        -9.3667
  82   2.0000      -0.341027        -9.2798
  83   2.0000      -0.337924        -9.1954
  84   2.0000      -0.334413        -9.0998
  85   2.0000      -0.318455        -8.6656
  86   2.0000      -0.309683        -8.4269
  87   2.0000      -0.302035        -8.2188
  88   2.0000      -0.297889        -8.1060
  89   2.0000      -0.294580        -8.0159
  90   2.0000      -0.276927        -7.5356
  91   2.0000      -0.270968        -7.3734
  92   2.0000      -0.267798        -7.2872
  93   2.0000      -0.262638        -7.1468
  94   2.0000      -0.254964        -6.9379
  95   2.0000      -0.239070        -6.5054
  96   2.0000      -0.218388        -5.9426
  97   2.0000      -0.209092        -5.6897
  98   2.0000      -0.198752        -5.4083
  99   2.0000      -0.192056        -5.2261
 100   2.0000      -0.183883        -5.0037
 101   0.0000      -0.040464        -1.1011
 102   0.0000      -0.029131        -0.7927
 103   0.0000      -0.015010        -0.4085
 104   0.0000       0.008156         0.2219
 105   0.0000       0.020184         0.5492

MULLIKEN ATOMIC CHARGES
-----------------------
   0 C :   -0.289219
   1 C :   -0.044509
   2 O :   -0.371366
   3 P :    0.621289
   4 S :   -0.300543
   5 O :   -0.371837
   6 C :   -0.009744
   7 C :   -0.309498
   8 S :   -0.122255
   9 C :   -0.342220
  10 S :   -0.118790
  11 P :    0.589915
  12 S :   -0.292239
  13 O :   -0.344654
  14 C :   -0.007048
  15 C :   -0.290908
  16 O :   -0.381987
  17 C :   -0.013473
  18 C :   -0.308576
  19 H :    0.130947
  20 H :    0.123623
  21 H :    0.109248
  22 H :    0.111449
  23 H :    0.116576
  24 H :    0.125255
  25 H :    0.101218
  26 H :    0.127642
  27 H :    0.112145
  28 H :    0.105942
  29 H :    0.186724
  30 H :    0.212448
  31 H :    0.106580
  32 H :    0.096797
  33 H :    0.117795
  34 H :    0.105063
  35 H :    0.128670
  36 H :    0.113204
  37 H :    0.109334
  38 H :    0.128121
  39 H :    0.111219
  40 H :    0.127663
Sum of atomic charges:   -0.0000000

LOEWDIN ATOMIC CHARGES
----------------------
   0 C :   -0.360971
   1 C :   -0.120293
   2 O :   -0.245473
   3 P :    0.568811
   4 S :   -0.300365
   5 O :   -0.242797
   6 C :   -0.125671
   7 C :   -0.366861
   8 S :    0.077900
   9 C :   -0.476390
  10 S :    0.063714
  11 P :    0.563615
  12 S :   -0.282874
  13 O :   -0.229288
  14 C :   -0.114616
  15 C :   -0.355830
  16 O :   -0.248235
  17 C :   -0.114602
  18 C :   -0.369142
  19 H :    0.118336
  20 H :    0.131349
  21 H :    0.129892
  22 H :    0.120954
  23 H :    0.109393
  24 H :    0.108942
  25 H :    0.116323
  26 H :    0.124708
  27 H :    0.130853
  28 H :    0.118731
  29 H :    0.138964
  30 H :    0.127999
  31 H :    0.115218
  32 H :    0.101670
  33 H :    0.127179
  34 H :    0.127550
  35 H :    0.118526
  36 H :    0.107760
  37 H :    0.121367
  38 H :    0.122552
  39 H :    0.130036
  40 H :    0.131068

  Mayer bond orders larger than 0.100000
B(  0-C ,  1-C ) :   1.1678 B(  0-C , 19-H ) :   0.9346 B(  0-C , 20-H ) :   0.9456
B(  0-C , 21-H ) :   0.9387 B(  1-C ,  2-O ) :   0.9025 B(  1-C , 22-H ) :   0.9333
B(  1-C , 23-H ) :   0.9103 B(  2-O ,  3-P ) :   1.1036 B(  3-P ,  4-S ) :   1.6486
B(  3-P ,  5-O ) :   1.0921 B(  3-P ,  8-S ) :   0.9590 B(  4-S ,  8-S ) :   0.1083
B(  5-O ,  6-C ) :   0.9052 B(  6-C ,  7-C ) :   1.1533 B(  6-C , 24-H ) :   0.9093
B(  6-C , 25-H ) :   0.9340 B(  7-C , 26-H ) :   0.9361 B(  7-C , 27-H ) :   0.9404
B(  7-C , 28-H ) :   0.9447 B(  8-S ,  9-C ) :   0.9916 B(  9-C , 10-S ) :   1.0065
B(  9-C , 29-H ) :   0.9112 B(  9-C , 30-H ) :   0.8414 B( 10-S , 11-P ) :   0.9331
B( 10-S , 12-S ) :   0.1057 B( 11-P , 12-S ) :   1.6583 B( 11-P , 13-O ) :   1.1426
B( 11-P , 16-O ) :   1.0820 B( 13-O , 14-C ) :   0.8897 B( 14-C , 15-C ) :   1.1658
B( 14-C , 31-H ) :   0.9334 B( 14-C , 32-H ) :   0.9098 B( 15-C , 33-H ) :   0.9481
B( 15-C , 34-H ) :   0.9391 B( 15-C , 35-H ) :   0.9365 B( 16-O , 17-C ) :   0.9148
B( 17-C , 18-C ) :   1.1662 B( 17-C , 36-H ) :   0.9268 B( 17-C , 37-H ) :   0.9335
B( 18-C , 38-H ) :   0.9321 B( 18-C , 39-H ) :   0.9348 B( 18-C , 40-H ) :   0.9430

Dispersion correction           -0.068301685
FINAL SINGLE POINT ENERGY     -2929.514542989588

DIPOLE MOMENT
-------------

Method             : SCF
Type of density    : Electron Density
Multiplicity       :   1
Irrep              :   0
Energy             : -2929.6331887591554732 Eh
Relativity type    :
Basis              : AO
                                X                 Y                 Z
Electronic contribution:     -3.296593229      -3.004346441     -15.585413186
Nuclear contribution   :      2.840888659       2.220667918      17.504993306
                        -----------------------------------------
Total Dipole Moment    :     -0.455704570      -0.783678523       1.919580121
                        -----------------------------------------
Magnitude (a.u.)       :      2.122876945
Magnitude (Debye)      :      5.395924372

Rotational constants in cm-1:             0.012253             0.005622             0.005263
Rotational constants in MHz :           367.335825           168.550870           157.780930

                             ****ORCA TERMINATED NORMALLY****
TOTAL RUN TIME: 0 days 0 hours 0 minutes 22 seconds 13 msec
