                         Program Version 6.0.0  -   RELEASE  -
|  1> ! pbe def2-sv(p) def2/J RI DEFGRID1 loosescf d4 GCP(DFT/SV(P)) printgap
|  2> %output
|  3>     printlevel normal
|  4> end
|  5> * xyz 0 1
|  6> C 3.8250133338 -1.0622947937 -2.4795545694
|  7> C 4.2105737084 0.2527484172 -1.8318235248
|  8> O 3.7251259053 0.3660883192 -0.4856788273
|  9> P 2.1773864324 0.4753065738 -0.1142870292
| 10> S 1.1669857755 1.5737555068 -1.3799922606
| 11> O 2.2609915008 1.1131316072 1.3191577792
| 12> C 2.5349077033 0.4278589916 2.562465262
| 13> C 3.8113362568 -0.3825748216 2.5138927899
| 14> S 1.5231277823 -1.539991326 0.122751641
| 15> C 0.2206773886 -1.6193680075 -1.144367466
| 16> S -1.416192592 -2.0316892968 -0.4812284738
| 17> P -1.9927653384 -0.1819712021 0.3328134551
| 18> S -0.9055326833 0.6878464501 1.7055829372
| 19> O -3.4297549537 -0.4998823471 0.9192590099
| 20> C -4.4744479187 -1.1131055743 0.1206625443
| 21> C -5.8104018715 -0.6922207611 0.6976918239
| 22> O -2.1877612439 0.6384094203 -1.0268701513
| 23> C -2.266219498 2.0738062418 -1.0457057898
| 24> C -3.5957260549 2.5643573769 -0.5117173437
| 25> H 2.7513215181 -1.0870354379 -2.6584787608
| 26> H 4.3402468333 -1.1557600085 -3.4301303946
| 27> H 4.0983321049 -1.8954627977 -1.8373322634
| 28> H 3.8215997447 1.095678149 -2.4121948225
| 29> H 5.2922346493 0.3457942307 -1.7245496514
| 30> H 2.5960330662 1.2438959692 3.2839532731
| 31> H 1.6696524548 -0.1974919415 2.8002280897
| 32> H 4.0014116555 -0.8009247227 3.4974498722
| 33> H 3.7135877195 -1.1961278957 1.7965233941
| 34> H 4.6456249064 0.249241861 2.2204360469
| 35> H 0.4650920985 -2.4317921084 -1.8238013307
| 36> H 0.1723948103 -0.6569638844 -1.6623017541
| 37> H -4.3624952751 -0.7898090437 -0.917439042
| 38> H -4.3374078047 -2.1952151331 0.1778230273
| 39> H -6.6057103444 -1.178550731 0.1421903014
| 40> H -5.8696849836 -0.9841863275 1.742175403
| 41> H -5.9313162095 0.3854870513 0.6301565915
| 42> H -1.4360632737 2.4784505581 -0.4575209568
| 43> H -2.1182913354 2.3342173436 -2.0948315576
| 44> H -3.6326378058 3.6466838243 -0.5857483914
| 45> H -4.4142359324 2.1362130348 -1.0848293386
| 46> H -3.699360574 2.2778421218 0.5348171145
| 47> *
| 48>
| 49>                          ****END OF INPUT****

CARTESIAN COORDINATES (ANGSTROEM)
---------------------------------
  C      3.825013   -1.062295   -2.479555
  C      4.210574    0.252748   -1.831824
  O      3.725126    0.366088   -0.485679
  P      2.177386    0.475307   -0.114287
  S      1.166986    1.573756   -1.379992
  O      2.260992    1.113132    1.319158
  C      2.534908    0.427859    2.562465
  C      3.811336   -0.382575    2.513893
  S      1.523128   -1.539991    0.122752
  C      0.220677   -1.619368   -1.144367
  S     -1.416193   -2.031689   -0.481228
  P     -1.992765   -0.181971    0.332813
  S     -0.905533    0.687846    1.705583
  O     -3.429755   -0.499882    0.919259
  C     -4.474448   -1.113106    0.120663
  C     -5.810402   -0.692221    0.697692
  O     -2.187761    0.638409   -1.026870
  C     -2.266219    2.073806   -1.045706
  C     -3.595726    2.564357   -0.511717
  H      2.751322   -1.087035   -2.658479
  H      4.340247   -1.155760   -3.430130
  H      4.098332   -1.895463   -1.837332
  H      3.821600    1.095678   -2.412195
  H      5.292235    0.345794   -1.724550
  H      2.596033    1.243896    3.283953
  H      1.669652   -0.197492    2.800228
  H      4.001412   -0.800925    3.497450
  H      3.713588   -1.196128    1.796523
  H      4.645625    0.249242    2.220436
  H      0.465092   -2.431792   -1.823801
  H      0.172395   -0.656964   -1.662302
  H     -4.362495   -0.789809   -0.917439
  H     -4.337408   -2.195215    0.177823
  H     -6.605710   -1.178551    0.142190
  H     -5.869685   -0.984186    1.742175
  H     -5.931316    0.385487    0.630157
  H     -1.436063    2.478451   -0.457521
  H     -2.118291    2.334217   -2.094832
  H     -3.632638    3.646684   -0.585748
  H     -4.414236    2.136213   -1.084829
  H     -3.699361    2.277842    0.534817

 Total Charge           Charge          ....    0
 Multiplicity           Mult            ....    1
 Number of Electrons    NEL             ....  202
 Basis Dimension        Dim             ....  334

ORBITAL ENERGIES
----------------

  NO   OCC          E(Eh)            E(eV)
   0   2.0000     -88.040707     -2395.7094
   1   2.0000     -88.040445     -2395.7023
   2   2.0000     -87.982612     -2394.1286
   3   2.0000     -87.976413     -2393.9599
   4   2.0000     -76.423106     -2079.5784
   5   2.0000     -76.418681     -2079.4580
   6   2.0000     -18.789990      -511.3016
   7   2.0000     -18.784730      -511.1585
   8   2.0000     -18.784403      -511.1496
   9   2.0000     -18.782441      -511.0962
  10   2.0000      -9.956701      -270.9356
  11   2.0000      -9.956297      -270.9246
  12   2.0000      -9.949351      -270.7356
  13   2.0000      -9.948895      -270.7232
  14   2.0000      -9.939841      -270.4768
  15   2.0000      -9.891061      -269.1495
  16   2.0000      -9.885020      -268.9851
  17   2.0000      -9.884618      -268.9741
  18   2.0000      -9.881066      -268.8775
  19   2.0000      -7.686225      -209.1528
  20   2.0000      -7.685386      -209.1300
  21   2.0000      -7.627614      -207.5579
  22   2.0000      -7.621383      -207.3884
  23   2.0000      -6.420225      -174.7032
  24   2.0000      -6.416710      -174.6075
  25   2.0000      -5.714095      -155.4884
  26   2.0000      -5.713320      -155.4673
  27   2.0000      -5.710645      -155.3946
  28   2.0000      -5.709921      -155.3749
  29   2.0000      -5.703161      -155.1909
  30   2.0000      -5.702344      -155.1687
  31   2.0000      -5.656458      -153.9200
  32   2.0000      -5.650418      -153.7557
  33   2.0000      -5.648519      -153.7040
  34   2.0000      -5.647461      -153.6752
  35   2.0000      -5.642049      -153.5280
  36   2.0000      -5.641352      -153.5090
  37   2.0000      -4.642810      -126.3373
  38   2.0000      -4.641956      -126.3140
  39   2.0000      -4.640792      -126.2824
  40   2.0000      -4.639675      -126.2520
  41   2.0000      -4.638243      -126.2130
  42   2.0000      -4.637008      -126.1794
  43   2.0000      -0.980686       -26.6858
  44   2.0000      -0.980495       -26.6806
  45   2.0000      -0.939765       -25.5723
  46   2.0000      -0.938009       -25.5245
  47   2.0000      -0.760210       -20.6864
  48   2.0000      -0.718897       -19.5622
  49   2.0000      -0.709342       -19.3022
  50   2.0000      -0.688652       -18.7392
  51   2.0000      -0.686602       -18.6834
  52   2.0000      -0.673287       -18.3211
  53   2.0000      -0.647715       -17.6252
  54   2.0000      -0.633582       -17.2406
  55   2.0000      -0.598173       -16.2771
  56   2.0000      -0.582655       -15.8549
  57   2.0000      -0.572834       -15.5876
  58   2.0000      -0.571047       -15.5390
  59   2.0000      -0.561551       -15.2806
  60   2.0000      -0.503252       -13.6942
  61   2.0000      -0.488215       -13.2850
  62   2.0000      -0.474095       -12.9008
  63   2.0000      -0.465865       -12.6768
  64   2.0000      -0.451472       -12.2852
  65   2.0000      -0.447297       -12.1716
  66   2.0000      -0.439183       -11.9508
  67   2.0000      -0.436233       -11.8705
  68   2.0000      -0.427985       -11.6461
  69   2.0000      -0.416116       -11.3231
  70   2.0000      -0.402902       -10.9635
  71   2.0000      -0.395667       -10.7666
  72   2.0000      -0.391755       -10.6602
  73   2.0000      -0.388547       -10.5729
  74   2.0000      -0.382566       -10.4101
  75   2.0000      -0.366866        -9.9829
  76   2.0000      -0.361311        -9.8318
  77   2.0000      -0.357956        -9.7405
  78   2.0000      -0.354090        -9.6353
  79   2.0000      -0.349732        -9.5167
  80   2.0000      -0.344379        -9.3710
  81   2.0000      -0.343088        -9.3359
  82   2.0000      -0.342345        -9.3157
  83   2.0000      -0.337328        -9.1792
  84   2.0000      -0.333498        -9.0749
  85   2.0000      -0.312699        -8.5090
  86   2.0000      -0.309130        -8.4119
  87   2.0000      -0.306319        -8.3354
  88   2.0000      -0.290094        -7.8938
  89   2.0000      -0.286361        -7.7923
  90   2.0000      -0.273611        -7.4453
  91   2.0000      -0.268559        -7.3079
  92   2.0000      -0.266494        -7.2517
  93   2.0000      -0.262527        -7.1437
  94   2.0000      -0.257382        -7.0037
  95   2.0000      -0.237476        -6.4621
  96   2.0000      -0.215967        -5.8767
  97   2.0000      -0.204661        -5.5691
  98   2.0000      -0.201581        -5.4853
  99   2.0000      -0.191480        -5.2104
 100   2.0000      -0.184277        -5.0144
 101   0.0000      -0.038711        -1.0534
 102   0.0000      -0.030062        -0.8180
 103   0.0000      -0.011365        -0.3093
 104   0.0000       0.008454         0.2300
 105   0.0000       0.022332         0.6077

MULLIKEN ATOMIC CHARGES
-----------------------
   0 C :   -0.320287
   1 C :    0.003968
   2 O :   -0.373986
   3 P :    0.608490
   4 S :   -0.314015
   5 O :   -0.351908
   6 C :   -0.007491
   7 C :   -0.315919
   8 S :   -0.105597
   9 C :   -0.352484
  10 S :   -0.096155
  11 P :    0.611022
  12 S :   -0.304594
  13 O :   -0.371775
  14 C :   -0.035499
  15 C :   -0.280131
  16 O :   -0.384815
  17 C :   -0.017585
  18 C :   -0.315951
  19 H :    0.120477
  20 H :    0.111431
  21 H :    0.118663
  22 H :    0.110450
  23 H :    0.102654
  24 H :    0.110612
  25 H :    0.128289
  26 H :    0.115235
  27 H :    0.125165
  28 H :    0.123029
  29 H :    0.184036
  30 H :    0.202256
  31 H :    0.111181
  32 H :    0.114942
  33 H :    0.111240
  34 H :    0.123818
  35 H :    0.121184
  36 H :    0.132847
  37 H :    0.102164
  38 H :    0.113731
  39 H :    0.109905
  40 H :    0.131404
Sum of atomic charges:   -0.0000000

LOEWDIN ATOMIC CHARGES
----------------------
   0 C :   -0.369916
   1 C :   -0.118252
   2 O :   -0.248803
   3 P :    0.577691
   4 S :   -0.295467
   5 O :   -0.223867
   6 C :   -0.115220
   7 C :   -0.367177
   8 S :    0.073231
   9 C :   -0.480787
  10 S :    0.078415
  11 P :    0.561216
  12 S :   -0.300169
  13 O :   -0.245197
  14 C :   -0.122602
  15 C :   -0.350085
  16 O :   -0.250888
  17 C :   -0.126779
  18 C :   -0.366621
  19 H :    0.118634
  20 H :    0.129913
  21 H :    0.124162
  22 H :    0.110201
  23 H :    0.117890
  24 H :    0.123938
  25 H :    0.112067
  26 H :    0.132531
  27 H :    0.115670
  28 H :    0.129137
  29 H :    0.136032
  30 H :    0.123619
  31 H :    0.109513
  32 H :    0.113682
  33 H :    0.130623
  34 H :    0.131393
  35 H :    0.127721
  36 H :    0.111353
  37 H :    0.116857
  38 H :    0.131874
  39 H :    0.119342
  40 H :    0.125128

  Mayer bond orders larger than 0.100000
B(  0-C ,  1-C ) :   1.1626 B(  0-C , 19-H ) :   0.9377 B(  0-C , 20-H ) :   0.9376
B(  0-C , 21-H ) :   0.9428 B(  1-C ,  2-O ) :   0.9220 B(  1-C , 22-H ) :   0.9154
B(  1-C , 23-H ) :   0.9344 B(  2-O ,  3-P ) :   1.0769 B(  3-P ,  4-S ) :   1.5984
B(  3-P ,  5-O ) :   1.1603 B(  3-P ,  8-S ) :   0.9442 B(  4-S ,  8-S ) :   0.1121
B(  4-S , 30-H ) :   0.1146 B(  5-O ,  6-C ) :   0.8962 B(  6-C ,  7-C ) :   1.1662
B(  6-C , 24-H ) :   0.9343 B(  6-C , 25-H ) :   0.9143 B(  7-C , 26-H ) :   0.9355
B(  7-C , 27-H ) :   0.9367 B(  7-C , 28-H ) :   0.9418 B(  8-S ,  9-C ) :   1.0032
B(  9-C , 10-S ) :   1.0031 B(  9-C , 29-H ) :   0.9087 B(  9-C , 30-H ) :   0.8421
B( 10-S , 11-P ) :   0.9713 B( 10-S , 12-S ) :   0.1091 B( 11-P , 12-S ) :   1.6654
B( 11-P , 13-O ) :   1.1109 B( 11-P , 16-O ) :   1.0727 B( 13-O , 14-C ) :   0.8963
B( 14-C , 15-C ) :   1.1663 B( 14-C , 31-H ) :   0.9145 B( 14-C , 32-H ) :   0.9286
B( 15-C , 33-H ) :   0.9407 B( 15-C , 34-H ) :   0.9482 B( 15-C , 35-H ) :   0.9484
B( 16-O , 17-C ) :   0.9018 B( 17-C , 18-C ) :   1.1561 B( 17-C , 36-H ) :   0.9043
B( 17-C , 37-H ) :   0.9358 B( 18-C , 38-H ) :   0.9393 B( 18-C , 39-H ) :   0.9431
B( 18-C , 40-H ) :   0.9348

Dispersion correction           -0.067442888
FINAL SINGLE POINT ENERGY     -2929.514672183047

DIPOLE MOMENT
-------------

Method             : SCF
Type of density    : Electron Density
Multiplicity       :   1
Irrep              :   0
Energy             : -2929.6332510399097373 Eh
Relativity type    :
Basis              : AO
                                X                 Y                 Z
Electronic contribution:      4.553578249      -2.012882054       3.179894872
Nuclear contribution   :     -4.710608438       1.323549286      -3.808089993
                        -----------------------------------------
Total Dipole Moment    :     -0.157030190      -0.689332767      -0.628195121
                        -----------------------------------------
Magnitude (a.u.)       :      0.945762790
Magnitude (Debye)      :      2.403937968

Rotational constants in cm-1:             0.013814             0.004795             0.004777
Rotational constants in MHz :           414.137231           143.758842           143.212002

                             ****ORCA TERMINATED NORMALLY****
TOTAL RUN TIME: 0 days 0 hours 0 minutes 21 seconds 138 msec
