                         Program Version 6.0.0  -   RELEASE  -
|  1> ! pbe def2-sv(p) def2/J RI DEFGRID1 loosescf d4 GCP(DFT/SV(P)) printgap
|  2> %output
|  3>     printlevel normal
|  4> end
|  5> * xyz 0 1
|  6> C 4.5500318551 -1.1285150504 -1.9170886554
|  7> C 4.3743586931 0.2790113143 -1.3821146616
|  8> O 3.5088946863 0.3099997518 -0.2311177998
|  9> P 1.9381359967 0.5555742616 -0.3292651473
| 10> S 1.4334507141 1.9906092648 -1.5550094661
| 11> O 1.5933456284 0.868256614 1.1731214946
| 12> C 2.1755569117 0.1579746453 2.2972820277
| 13> C 1.6654506052 0.8182425522 3.5593771863
| 14> S 1.1751940306 -1.3775873437 -0.824717367
| 15> C -0.1085048897 -0.9177943995 -2.0213141868
| 16> S -1.8122382904 -1.2499000402 -1.4898701696
| 17> P -1.8189958875 -0.3285849397 0.4381731303
| 18> S -0.9378629158 -1.2498858953 1.919423597
| 19> O -3.3653187341 -0.032276481 0.6473295974
| 20> C -4.4255807399 -0.9826121476 0.4260037532
| 21> C -4.215413659 -2.2874183482 1.1642562082
| 22> O -1.2136058017 1.1169491262 0.2324527244
| 23> C -1.8987594879 2.1553634529 -0.5155401916
| 24> C -2.6169649284 3.0933315729 0.430817582
| 25> H 3.616775631 -1.5065431992 -2.3262396643
| 26> H 5.30103316 -1.1149111485 -2.7003781939
| 27> H 4.8748462739 -1.7915368262 -1.1198464645
| 28> H 3.9679601538 0.9500016455 -2.1460273447
| 29> H 5.3203546688 0.6805659814 -1.0139899524
| 30> H 1.8599240351 -0.88741992 2.2436646408
| 31> H 3.2618905939 0.221141034 2.2159677764
| 32> H 2.11841805 0.3351018872 4.4188175234
| 33> H 1.9179447063 1.8747883178 3.5579617415
| 34> H 0.5853976678 0.7108928833 3.6184538542
| 35> H 0.0308314907 -1.5330749874 -2.9071723412
| 36> H 0.00780763 0.1437659908 -2.2594173237
| 37> H -5.3145872377 -0.4604989274 0.7841187847
| 38> H -4.5049038766 -1.1583248195 -0.6505442794
| 39> H -4.0747152677 -2.1056319318 2.2272074621
| 40> H -5.0809330255 -2.9256349595 1.0187065237
| 41> H -3.3311736824 -2.7966275712 0.7826390651
| 42> H -1.1081430299 2.6718967634 -1.0644325284
| 43> H -2.593277708 1.6898205944 -1.2192912346
| 44> H -3.0731543481 3.8933423967 -0.143726524
| 45> H -3.385789848 2.557457565 0.9818550819
| 46> H -1.9090129337 3.5173669012 1.1379064112
| 47> *
| 48>
| 49>                          ****END OF INPUT****

CARTESIAN COORDINATES (ANGSTROEM)
---------------------------------
  C      4.550032   -1.128515   -1.917089
  C      4.374359    0.279011   -1.382115
  O      3.508895    0.310000   -0.231118
  P      1.938136    0.555574   -0.329265
  S      1.433451    1.990609   -1.555009
  O      1.593346    0.868257    1.173121
  C      2.175557    0.157975    2.297282
  C      1.665451    0.818243    3.559377
  S      1.175194   -1.377587   -0.824717
  C     -0.108505   -0.917794   -2.021314
  S     -1.812238   -1.249900   -1.489870
  P     -1.818996   -0.328585    0.438173
  S     -0.937863   -1.249886    1.919424
  O     -3.365319   -0.032276    0.647330
  C     -4.425581   -0.982612    0.426004
  C     -4.215414   -2.287418    1.164256
  O     -1.213606    1.116949    0.232453
  C     -1.898759    2.155363   -0.515540
  C     -2.616965    3.093332    0.430818
  H      3.616776   -1.506543   -2.326240
  H      5.301033   -1.114911   -2.700378
  H      4.874846   -1.791537   -1.119846
  H      3.967960    0.950002   -2.146027
  H      5.320355    0.680566   -1.013990
  H      1.859924   -0.887420    2.243665
  H      3.261891    0.221141    2.215968
  H      2.118418    0.335102    4.418818
  H      1.917945    1.874788    3.557962
  H      0.585398    0.710893    3.618454
  H      0.030831   -1.533075   -2.907172
  H      0.007808    0.143766   -2.259417
  H     -5.314587   -0.460499    0.784119
  H     -4.504904   -1.158325   -0.650544
  H     -4.074715   -2.105632    2.227207
  H     -5.080933   -2.925635    1.018707
  H     -3.331174   -2.796628    0.782639
  H     -1.108143    2.671897   -1.064433
  H     -2.593278    1.689821   -1.219291
  H     -3.073154    3.893342   -0.143727
  H     -3.385790    2.557458    0.981855
  H     -1.909013    3.517367    1.137906

 Total Charge           Charge          ....    0
 Multiplicity           Mult            ....    1
 Number of Electrons    NEL             ....  202
 Basis Dimension        Dim             ....  334

ORBITAL ENERGIES
----------------

  NO   OCC          E(Eh)            E(eV)
   0   2.0000     -88.041738     -2395.7375
   1   2.0000     -88.040620     -2395.7071
   2   2.0000     -87.987945     -2394.2737
   3   2.0000     -87.978032     -2394.0040
   4   2.0000     -76.424391     -2079.6134
   5   2.0000     -76.424316     -2079.6114
   6   2.0000     -18.793056      -511.3851
   7   2.0000     -18.791543      -511.3439
   8   2.0000     -18.786374      -511.2032
   9   2.0000     -18.783341      -511.1207
  10   2.0000      -9.960097      -271.0280
  11   2.0000      -9.955791      -270.9108
  12   2.0000      -9.951611      -270.7971
  13   2.0000      -9.943367      -270.5728
  14   2.0000      -9.942957      -270.5616
  15   2.0000      -9.883665      -268.9482
  16   2.0000      -9.883499      -268.9437
  17   2.0000      -9.878110      -268.7971
  18   2.0000      -9.873926      -268.6832
  19   2.0000      -7.686187      -209.1518
  20   2.0000      -7.685775      -209.1406
  21   2.0000      -7.633057      -207.7060
  22   2.0000      -7.623185      -207.4374
  23   2.0000      -6.421974      -174.7508
  24   2.0000      -6.421401      -174.7352
  25   2.0000      -5.713992      -155.4856
  26   2.0000      -5.713606      -155.4751
  27   2.0000      -5.710734      -155.3970
  28   2.0000      -5.710173      -155.3817
  29   2.0000      -5.703219      -155.1925
  30   2.0000      -5.702930      -155.1846
  31   2.0000      -5.661860      -154.0670
  32   2.0000      -5.653599      -153.8422
  33   2.0000      -5.653289      -153.8338
  34   2.0000      -5.652275      -153.8062
  35   2.0000      -5.643522      -153.5681
  36   2.0000      -5.643377      -153.5641
  37   2.0000      -4.644775      -126.3908
  38   2.0000      -4.644559      -126.3849
  39   2.0000      -4.643509      -126.3563
  40   2.0000      -4.643471      -126.3553
  41   2.0000      -4.642502      -126.3289
  42   2.0000      -4.641090      -126.2905
  43   2.0000      -0.986343       -26.8398
  44   2.0000      -0.984125       -26.7794
  45   2.0000      -0.941889       -25.6301
  46   2.0000      -0.937965       -25.5233
  47   2.0000      -0.759670       -20.6717
  48   2.0000      -0.717747       -19.5309
  49   2.0000      -0.707670       -19.2567
  50   2.0000      -0.688905       -18.7460
  51   2.0000      -0.685554       -18.6549
  52   2.0000      -0.671974       -18.2854
  53   2.0000      -0.648346       -17.6424
  54   2.0000      -0.637599       -17.3499
  55   2.0000      -0.591845       -16.1049
  56   2.0000      -0.585942       -15.9443
  57   2.0000      -0.568948       -15.4819
  58   2.0000      -0.565271       -15.3818
  59   2.0000      -0.561668       -15.2838
  60   2.0000      -0.504031       -13.7154
  61   2.0000      -0.497536       -13.5386
  62   2.0000      -0.475735       -12.9454
  63   2.0000      -0.470835       -12.8121
  64   2.0000      -0.454071       -12.3559
  65   2.0000      -0.451425       -12.2839
  66   2.0000      -0.434207       -11.8154
  67   2.0000      -0.429952       -11.6996
  68   2.0000      -0.426084       -11.5943
  69   2.0000      -0.416413       -11.3312
  70   2.0000      -0.408938       -11.1278
  71   2.0000      -0.397174       -10.8077
  72   2.0000      -0.390473       -10.6253
  73   2.0000      -0.382658       -10.4127
  74   2.0000      -0.379384       -10.3236
  75   2.0000      -0.363921        -9.9028
  76   2.0000      -0.357670        -9.7327
  77   2.0000      -0.352229        -9.5846
  78   2.0000      -0.349785        -9.5181
  79   2.0000      -0.347849        -9.4655
  80   2.0000      -0.346000        -9.4151
  81   2.0000      -0.341782        -9.3003
  82   2.0000      -0.335618        -9.1326
  83   2.0000      -0.333870        -9.0851
  84   2.0000      -0.326789        -8.8924
  85   2.0000      -0.317518        -8.6401
  86   2.0000      -0.311455        -8.4751
  87   2.0000      -0.299123        -8.1396
  88   2.0000      -0.295636        -8.0447
  89   2.0000      -0.291587        -7.9345
  90   2.0000      -0.284731        -7.7479
  91   2.0000      -0.274516        -7.4700
  92   2.0000      -0.265397        -7.2218
  93   2.0000      -0.256997        -6.9932
  94   2.0000      -0.254873        -6.9354
  95   2.0000      -0.240061        -6.5324
  96   2.0000      -0.222861        -6.0644
  97   2.0000      -0.207853        -5.6560
  98   2.0000      -0.203679        -5.5424
  99   2.0000      -0.192040        -5.2257
 100   2.0000      -0.183673        -4.9980
 101   0.0000      -0.046503        -1.2654
 102   0.0000      -0.031379        -0.8539
 103   0.0000      -0.017684        -0.4812
 104   0.0000       0.006533         0.1778
 105   0.0000       0.015791         0.4297

MULLIKEN ATOMIC CHARGES
-----------------------
   0 C :   -0.298251
   1 C :   -0.005696
   2 O :   -0.388595
   3 P :    0.645499
   4 S :   -0.318591
   5 O :   -0.352960
   6 C :   -0.014808
   7 C :   -0.283002
   8 S :   -0.099173
   9 C :   -0.334585
  10 S :   -0.132658
  11 P :    0.596958
  12 S :   -0.298026
  13 O :   -0.379847
  14 C :   -0.014738
  15 C :   -0.311452
  16 O :   -0.349523
  17 C :   -0.019467
  18 C :   -0.287356
  19 H :    0.120288
  20 H :    0.109408
  21 H :    0.113174
  22 H :    0.104937
  23 H :    0.105529
  24 H :    0.112588
  25 H :    0.106005
  26 H :    0.103907
  27 H :    0.112379
  28 H :    0.128852
  29 H :    0.179051
  30 H :    0.195265
  31 H :    0.110693
  32 H :    0.115513
  33 H :    0.128651
  34 H :    0.111521
  35 H :    0.129716
  36 H :    0.123136
  37 H :    0.091192
  38 H :    0.106303
  39 H :    0.116060
  40 H :    0.122103
Sum of atomic charges:    0.0000000

LOEWDIN ATOMIC CHARGES
----------------------
   0 C :   -0.366121
   1 C :   -0.118159
   2 O :   -0.248555
   3 P :    0.578605
   4 S :   -0.288954
   5 O :   -0.225379
   6 C :   -0.117665
   7 C :   -0.353152
   8 S :    0.086436
   9 C :   -0.481844
  10 S :    0.046896
  11 P :    0.565780
  12 S :   -0.295336
  13 O :   -0.245010
  14 C :   -0.115870
  15 C :   -0.370648
  16 O :   -0.229668
  17 C :   -0.124250
  18 C :   -0.357125
  19 H :    0.117208
  20 H :    0.129503
  21 H :    0.125511
  22 H :    0.106857
  23 H :    0.118732
  24 H :    0.107244
  25 H :    0.109373
  26 H :    0.127964
  27 H :    0.125716
  28 H :    0.126988
  29 H :    0.137623
  30 H :    0.119318
  31 H :    0.121964
  32 H :    0.107830
  33 H :    0.130947
  34 H :    0.130178
  35 H :    0.122468
  36 H :    0.111069
  37 H :    0.102134
  38 H :    0.128290
  39 H :    0.123195
  40 H :    0.129905

  Mayer bond orders larger than 0.100000
B(  0-C ,  1-C ) :   1.1672 B(  0-C , 19-H ) :   0.9348 B(  0-C , 20-H ) :   0.9391
B(  0-C , 21-H ) :   0.9481 B(  1-C ,  2-O ) :   0.9104 B(  1-C , 22-H ) :   0.9064
B(  1-C , 23-H ) :   0.9356 B(  2-O ,  3-P ) :   1.0760 B(  3-P ,  4-S ) :   1.6034
B(  3-P ,  5-O ) :   1.1611 B(  3-P ,  8-S ) :   0.9481 B(  4-S ,  8-S ) :   0.1167
B(  4-S , 30-H ) :   0.1260 B(  5-O ,  6-C ) :   0.8822 B(  6-C ,  7-C ) :   1.1713
B(  6-C , 24-H ) :   0.9111 B(  6-C , 25-H ) :   0.9239 B(  7-C , 26-H ) :   0.9405
B(  7-C , 27-H ) :   0.9495 B(  7-C , 28-H ) :   0.9394 B(  8-S ,  9-C ) :   1.0223
B(  9-C , 10-S ) :   0.9833 B(  9-C , 29-H ) :   0.9123 B(  9-C , 30-H ) :   0.8473
B( 10-S , 11-P ) :   0.9450 B( 10-S , 12-S ) :   0.1105 B( 11-P , 12-S ) :   1.6634
B( 11-P , 13-O ) :   1.0674 B( 11-P , 16-O ) :   1.1291 B( 13-O , 14-C ) :   0.9154
B( 14-C , 15-C ) :   1.1676 B( 14-C , 31-H ) :   0.9331 B( 14-C , 32-H ) :   0.9235
B( 15-C , 33-H ) :   0.9414 B( 15-C , 34-H ) :   0.9340 B( 15-C , 35-H ) :   0.9324
B( 16-O , 17-C ) :   0.8884 B( 17-C , 18-C ) :   1.1682 B( 17-C , 36-H ) :   0.9066
B( 17-C , 37-H ) :   0.9145 B( 18-C , 38-H ) :   0.9406 B( 18-C , 39-H ) :   0.9446
B( 18-C , 40-H ) :   0.9469

Dispersion correction           -0.067905932
FINAL SINGLE POINT ENERGY     -2929.512478993626

DIPOLE MOMENT
-------------

Method             : SCF
Type of density    : Electron Density
Multiplicity       :   1
Irrep              :   0
Energy             : -2929.6314042435947158 Eh
Relativity type    :
Basis              : AO
                                X                 Y                 Z
Electronic contribution:      1.317595448      -2.877502960      -5.571058742
Nuclear contribution   :     -1.513598492       2.667873860       5.086243785
                        -----------------------------------------
Total Dipole Moment    :     -0.196003044      -0.209629099      -0.484814957
                        -----------------------------------------
Magnitude (a.u.)       :      0.563388937
Magnitude (Debye)      :      1.432020874

Rotational constants in cm-1:             0.012044             0.005512             0.005369
Rotational constants in MHz :           361.082225           165.247762           160.970549

                             ****ORCA TERMINATED NORMALLY****
TOTAL RUN TIME: 0 days 0 hours 0 minutes 21 seconds 453 msec
