                         Program Version 6.0.0  -   RELEASE  -
|  1> ! pbe def2-sv(p) def2/J RI DEFGRID1 loosescf d4 GCP(DFT/SV(P)) printgap
|  2> %output
|  3>     printlevel normal
|  4> end
|  5> * xyz 0 1
|  6> C 0.5877553842 1.7028248699 -0.004478016
|  7> C 1.4033706082 0.4253412031 -0.266156496
|  8> H 1.5943484274 0.3391982153 -1.3492236003
|  9> C 0.5693777026 -0.7821789276 0.1789640384
| 10> H 0.415335446 -0.7202012169 1.2620364949
| 11> C -0.795763425 -0.7447300596 -0.5303596521
| 12> H -0.6440732555 -0.8572377882 -1.6159489273
| 13> C -1.481721087 0.6126336088 -0.2797470004
| 14> H -2.3776100025 0.6950605618 -0.9149406715
| 15> O -0.6624798486 1.6668282754 -0.6799242738
| 16> O -1.8259905889 0.7530322269 1.0684683768
| 17> O -1.6503309575 -1.7490917742 -0.0471464092
| 18> O 1.1972090992 -2.0213721879 -0.0385764486
| 19> O 2.6100386327 0.4156682194 0.4534770927
| 20> H 1.0928465929 2.5833333621 -0.402117404
| 21> H 0.4302375778 1.8188067677 1.0737001291
| 22> H -2.2817010709 -0.0591315868 1.3426881325
| 23> H -1.1333104982 -2.5640862385 0.059277544
| 24> H 1.6345911981 -2.0266986902 -0.9018562313
| 25> H 3.1597178365 1.166352738 0.1872570763
| 26> *
| 27>
| 28>                          ****END OF INPUT****

CARTESIAN COORDINATES (ANGSTROEM)
---------------------------------
  C      0.587755    1.702825   -0.004478
  C      1.403371    0.425341   -0.266156
  H      1.594348    0.339198   -1.349224
  C      0.569378   -0.782179    0.178964
  H      0.415335   -0.720201    1.262036
  C     -0.795763   -0.744730   -0.530360
  H     -0.644073   -0.857238   -1.615949
  C     -1.481721    0.612634   -0.279747
  H     -2.377610    0.695061   -0.914941
  O     -0.662480    1.666828   -0.679924
  O     -1.825991    0.753032    1.068468
  O     -1.650331   -1.749092   -0.047146
  O      1.197209   -2.021372   -0.038576
  O      2.610039    0.415668    0.453477
  H      1.092847    2.583333   -0.402117
  H      0.430238    1.818807    1.073700
  H     -2.281701   -0.059132    1.342688
  H     -1.133310   -2.564086    0.059278
  H      1.634591   -2.026699   -0.901856
  H      3.159718    1.166353    0.187257

 Total Charge           Charge          ....    0
 Multiplicity           Mult            ....    1
 Number of Electrons    NEL             ....   80
 Basis Dimension        Dim             ....  160

ORBITAL ENERGIES
----------------

  NO   OCC          E(Eh)            E(eV)
   0   2.0000     -18.769704      -510.7496
   1   2.0000     -18.761459      -510.5252
   2   2.0000     -18.761215      -510.5186
   3   2.0000     -18.760801      -510.5074
   4   2.0000     -18.752500      -510.2815
   5   2.0000      -9.983168      -271.6558
   6   2.0000      -9.950916      -270.7782
   7   2.0000      -9.945154      -270.6214
   8   2.0000      -9.941444      -270.5205
   9   2.0000      -9.936168      -270.3769
  10   2.0000      -0.980014       -26.6675
  11   2.0000      -0.950043       -25.8520
  12   2.0000      -0.938985       -25.5511
  13   2.0000      -0.923011       -25.1164
  14   2.0000      -0.906699       -24.6725
  15   2.0000      -0.704624       -19.1738
  16   2.0000      -0.678501       -18.4630
  17   2.0000      -0.590515       -16.0687
  18   2.0000      -0.579113       -15.7585
  19   2.0000      -0.532857       -14.4998
  20   2.0000      -0.501232       -13.6392
  21   2.0000      -0.482624       -13.1329
  22   2.0000      -0.468549       -12.7499
  23   2.0000      -0.457622       -12.4525
  24   2.0000      -0.435512       -11.8509
  25   2.0000      -0.419975       -11.4281
  26   2.0000      -0.411295       -11.1919
  27   2.0000      -0.385531       -10.4908
  28   2.0000      -0.364315        -9.9135
  29   2.0000      -0.354321        -9.6416
  30   2.0000      -0.325371        -8.8538
  31   2.0000      -0.309924        -8.4334
  32   2.0000      -0.305433        -8.3112
  33   2.0000      -0.291304        -7.9268
  34   2.0000      -0.275332        -7.4922
  35   2.0000      -0.253519        -6.8986
  36   2.0000      -0.247080        -6.7234
  37   2.0000      -0.225346        -6.1320
  38   2.0000      -0.221143        -6.0176
  39   2.0000      -0.209458        -5.6996
  40   0.0000       0.007716         0.2100
  41   0.0000       0.027264         0.7419
  42   0.0000       0.038542         1.0488
  43   0.0000       0.042491         1.1563
  44   0.0000       0.071029         1.9328

MULLIKEN ATOMIC CHARGES
-----------------------
   0 C :    0.072012
   1 C :   -0.022687
   2 H :    0.044486
   3 C :    0.057191
   4 H :    0.069813
   5 C :    0.030558
   6 H :    0.047118
   7 C :    0.195335
   8 H :    0.068674
   9 O :   -0.305821
  10 O :   -0.414366
  11 O :   -0.424869
  12 O :   -0.412596
  13 O :   -0.400293
  14 H :    0.084601
  15 H :    0.089764
  16 H :    0.307686
  17 H :    0.309877
  18 H :    0.300748
  19 H :    0.302768
Sum of atomic charges:    0.0000000

LOEWDIN ATOMIC CHARGES
----------------------
   0 C :   -0.126545
   1 C :   -0.089032
   2 H :    0.092588
   3 C :   -0.078242
   4 H :    0.121267
   5 C :   -0.100814
   6 H :    0.098366
   7 C :    0.010208
   8 H :    0.098673
   9 O :   -0.137664
  10 O :   -0.321208
  11 O :   -0.322874
  12 O :   -0.309815
  13 O :   -0.314013
  14 H :    0.112342
  15 H :    0.115630
  16 H :    0.288753
  17 H :    0.287083
  18 H :    0.286770
  19 H :    0.288528

  Mayer bond orders larger than 0.100000
B(  0-C ,  1-C ) :   1.0531 B(  0-C ,  9-O ) :   0.9991 B(  0-C , 14-H ) :   0.9257
B(  0-C , 15-H ) :   0.8897 B(  1-C ,  2-H ) :   0.8730 B(  1-C ,  3-C ) :   1.0235
B(  1-C , 13-O ) :   1.0913 B(  3-C ,  4-H ) :   0.8704 B(  3-C ,  5-C ) :   0.9800
B(  3-C , 12-O ) :   1.0520 B(  5-C ,  6-H ) :   0.8727 B(  5-C ,  7-C ) :   0.9927
B(  5-C , 11-O ) :   1.0809 B(  7-C ,  8-H ) :   0.9026 B(  7-C ,  9-O ) :   1.0830
B(  7-C , 10-O ) :   1.0491 B( 10-O , 16-H ) :   0.8205 B( 11-O , 17-H ) :   0.8274
B( 12-O , 18-H ) :   0.8471 B( 13-O , 19-H ) :   0.8479

Dispersion correction           -0.019190634
FINAL SINGLE POINT ENERGY      -571.416017506886

DIPOLE MOMENT
-------------

Method             : SCF
Type of density    : Electron Density
Multiplicity       :   1
Irrep              :   0
Energy             :  -571.5243391884057473 Eh
Relativity type    :
Basis              : AO
                                X                 Y                 Z
Electronic contribution:     -1.094155155      -0.515751600       0.480251598
Nuclear contribution   :      1.768588341       0.338334836      -1.170071580
                        -----------------------------------------
Total Dipole Moment    :      0.674433186      -0.177416764      -0.689819983
                        -----------------------------------------
Magnitude (a.u.)       :      0.980912044
Magnitude (Debye)      :      2.493280272

Rotational constants in cm-1:             0.057019             0.044767             0.029000
Rotational constants in MHz :          1709.386319          1342.071997           869.408076

                             ****ORCA TERMINATED NORMALLY****
TOTAL RUN TIME: 0 days 0 hours 0 minutes 13 seconds 85 msec
