                         Program Version 6.0.0  -   RELEASE  -
|  1> ! pbe def2-sv(p) def2/J RI DEFGRID1 loosescf d4 GCP(DFT/SV(P)) printgap
|  2> %output
|  3>     printlevel normal
|  4> end
|  5> * xyz 0 1
|  6> C 2.9238715455 -0.440648702 -2.6529799529
|  7> C 1.6712305281 0.1829201619 -2.0766174368
|  8> O 1.1958032722 -0.5379007212 -0.9247483078
|  9> P 1.9887579413 -0.5215858945 0.4547430352
| 10> S 3.03005333 1.0960303742 0.8532362811
| 11> O 2.8579478765 -1.8462688714 0.3240315133
| 12> C 3.9905218034 -2.1134791395 1.1704194458
| 13> C 3.5800168354 -2.3938430703 2.6016735725
| 14> S 0.4650447004 -1.1044473503 1.7765281948
| 15> C -0.3493047814 0.5073418653 2.0466849054
| 16> S -0.4541997975 1.5664957908 0.5791355946
| 17> P -1.9333251621 0.5935193108 -0.5824166148
| 18> S -1.9596506148 1.1933334046 -2.4481142025
| 19> O -3.3207802408 0.7705510837 0.1899198951
| 20> C -4.1947516241 1.8793625452 -0.0698334234
| 21> C -3.6430751635 3.1749262733 0.4896727215
| 22> O -1.6025776487 -0.9183710826 -0.2636556157
| 23> C -2.5542797878 -2.0013980298 -0.3565661007
| 24> C -2.9744771685 -2.2653245728 -1.7869137937
| 25> H 3.7452155642 -0.3402041634 -1.9441874735
| 26> H 2.7578262485 -1.4955171321 -2.855345936
| 27> H 3.1860716796 0.0701749886 -3.5741238794
| 28> H 0.8352924409 0.1481911592 -2.7787567458
| 29> H 1.8515652296 1.2237734429 -1.7841036102
| 30> H 4.4633434771 -2.9808193887 0.707833432
| 31> H 4.6648290425 -1.2520265339 1.1263377521
| 32> H 3.1704718171 -1.4919436765 3.0543407367
| 33> H 2.8246162969 -3.1749398234 2.6322856591
| 34> H 4.4500943912 -2.708888111 3.1687343021
| 35> H 0.231319536 1.0830544763 2.7651581292
| 36> H -1.3442476214 0.289504901 2.4271064543
| 37> H -4.3386371951 1.9608224389 -1.15210121
| 38> H -5.1325948629 1.5978455351 0.4109961194
| 39> H -2.7186244953 3.4367402725 -0.0248598781
| 40> H -4.3668100981 3.9690180213 0.3372634524
| 41> H -3.4358842703 3.0751372868 1.5518631867
| 42> H -2.0110437995 -2.8477418285 0.0681136145
| 43> H -3.4165876062 -1.760439931 0.2684350227
| 44> H -2.1022589235 -2.4602303749 -2.4063231397
| 45> H -3.6357577389 -3.1256624146 -1.8158041409
| 46> H -3.4965815592 -1.3993259386 -2.1919190342
| 47> *
| 48>
| 49>                          ****END OF INPUT****

CARTESIAN COORDINATES (ANGSTROEM)
---------------------------------
  C      2.923872   -0.440649   -2.652980
  C      1.671231    0.182920   -2.076617
  O      1.195803   -0.537901   -0.924748
  P      1.988758   -0.521586    0.454743
  S      3.030053    1.096030    0.853236
  O      2.857948   -1.846269    0.324032
  C      3.990522   -2.113479    1.170419
  C      3.580017   -2.393843    2.601674
  S      0.465045   -1.104447    1.776528
  C     -0.349305    0.507342    2.046685
  S     -0.454200    1.566496    0.579136
  P     -1.933325    0.593519   -0.582417
  S     -1.959651    1.193333   -2.448114
  O     -3.320780    0.770551    0.189920
  C     -4.194752    1.879363   -0.069833
  C     -3.643075    3.174926    0.489673
  O     -1.602578   -0.918371   -0.263656
  C     -2.554280   -2.001398   -0.356566
  C     -2.974477   -2.265325   -1.786914
  H      3.745216   -0.340204   -1.944187
  H      2.757826   -1.495517   -2.855346
  H      3.186072    0.070175   -3.574124
  H      0.835292    0.148191   -2.778757
  H      1.851565    1.223773   -1.784104
  H      4.463343   -2.980819    0.707833
  H      4.664829   -1.252027    1.126338
  H      3.170472   -1.491944    3.054341
  H      2.824616   -3.174940    2.632286
  H      4.450094   -2.708888    3.168734
  H      0.231320    1.083054    2.765158
  H     -1.344248    0.289505    2.427106
  H     -4.338637    1.960822   -1.152101
  H     -5.132595    1.597846    0.410996
  H     -2.718624    3.436740   -0.024860
  H     -4.366810    3.969018    0.337263
  H     -3.435884    3.075137    1.551863
  H     -2.011044   -2.847742    0.068114
  H     -3.416588   -1.760440    0.268435
  H     -2.102259   -2.460230   -2.406323
  H     -3.635758   -3.125662   -1.815804
  H     -3.496582   -1.399326   -2.191919

 Total Charge           Charge          ....    0
 Multiplicity           Mult            ....    1
 Number of Electrons    NEL             ....  202
 Basis Dimension        Dim             ....  334

ORBITAL ENERGIES
----------------

  NO   OCC          E(Eh)            E(eV)
   0   2.0000     -88.044065     -2395.8008
   1   2.0000     -88.039399     -2395.6738
   2   2.0000     -87.989229     -2394.3086
   3   2.0000     -87.982555     -2394.1270
   4   2.0000     -76.428339     -2079.7208
   5   2.0000     -76.422616     -2079.5651
   6   2.0000     -18.797222      -511.4984
   7   2.0000     -18.790465      -511.3145
   8   2.0000     -18.790364      -511.3118
   9   2.0000     -18.779184      -511.0076
  10   2.0000      -9.961488      -271.0659
  11   2.0000      -9.955954      -270.9153
  12   2.0000      -9.954240      -270.8686
  13   2.0000      -9.949701      -270.7451
  14   2.0000      -9.934372      -270.3280
  15   2.0000      -9.885694      -269.0034
  16   2.0000      -9.884043      -268.9585
  17   2.0000      -9.882619      -268.9197
  18   2.0000      -9.873013      -268.6583
  19   2.0000      -7.688544      -209.2159
  20   2.0000      -7.684644      -209.1098
  21   2.0000      -7.634235      -207.7381
  22   2.0000      -7.627532      -207.5557
  23   2.0000      -6.425523      -174.8474
  24   2.0000      -6.419692      -174.6887
  25   2.0000      -5.716925      -155.5654
  26   2.0000      -5.712757      -155.4520
  27   2.0000      -5.712726      -155.4512
  28   2.0000      -5.709248      -155.3565
  29   2.0000      -5.705331      -155.2500
  30   2.0000      -5.701214      -155.1379
  31   2.0000      -5.663119      -154.1013
  32   2.0000      -5.656387      -153.9181
  33   2.0000      -5.654870      -153.8768
  34   2.0000      -5.654430      -153.8648
  35   2.0000      -5.648197      -153.6952
  36   2.0000      -5.647774      -153.6838
  37   2.0000      -4.648392      -126.4892
  38   2.0000      -4.647346      -126.4607
  39   2.0000      -4.645757      -126.4175
  40   2.0000      -4.642056      -126.3168
  41   2.0000      -4.641490      -126.3014
  42   2.0000      -4.640414      -126.2721
  43   2.0000      -0.990368       -26.9493
  44   2.0000      -0.980196       -26.6725
  45   2.0000      -0.946281       -25.7496
  46   2.0000      -0.937954       -25.5230
  47   2.0000      -0.763433       -20.7741
  48   2.0000      -0.720327       -19.6011
  49   2.0000      -0.704246       -19.1635
  50   2.0000      -0.689668       -18.7668
  51   2.0000      -0.681031       -18.5318
  52   2.0000      -0.671877       -18.2827
  53   2.0000      -0.653781       -17.7903
  54   2.0000      -0.637235       -17.3400
  55   2.0000      -0.598244       -16.2791
  56   2.0000      -0.591169       -16.0865
  57   2.0000      -0.579558       -15.7706
  58   2.0000      -0.566829       -15.4242
  59   2.0000      -0.561882       -15.2896
  60   2.0000      -0.500561       -13.6210
  61   2.0000      -0.486754       -13.2452
  62   2.0000      -0.473200       -12.8764
  63   2.0000      -0.467261       -12.7148
  64   2.0000      -0.458382       -12.4732
  65   2.0000      -0.441678       -12.0187
  66   2.0000      -0.435356       -11.8466
  67   2.0000      -0.432896       -11.7797
  68   2.0000      -0.423951       -11.5363
  69   2.0000      -0.418680       -11.3929
  70   2.0000      -0.410580       -11.1724
  71   2.0000      -0.403671       -10.9844
  72   2.0000      -0.390269       -10.6198
  73   2.0000      -0.383479       -10.4350
  74   2.0000      -0.382106       -10.3976
  75   2.0000      -0.374339       -10.1863
  76   2.0000      -0.367657       -10.0045
  77   2.0000      -0.356539        -9.7019
  78   2.0000      -0.353912        -9.6304
  79   2.0000      -0.350175        -9.5288
  80   2.0000      -0.343069        -9.3354
  81   2.0000      -0.341579        -9.2948
  82   2.0000      -0.339328        -9.2336
  83   2.0000      -0.335029        -9.1166
  84   2.0000      -0.331407        -9.0181
  85   2.0000      -0.321537        -8.7495
  86   2.0000      -0.308493        -8.3945
  87   2.0000      -0.297419        -8.0932
  88   2.0000      -0.294218        -8.0061
  89   2.0000      -0.291665        -7.9366
  90   2.0000      -0.277733        -7.5575
  91   2.0000      -0.271350        -7.3838
  92   2.0000      -0.264641        -7.2013
  93   2.0000      -0.263637        -7.1739
  94   2.0000      -0.259439        -7.0597
  95   2.0000      -0.228804        -6.2261
  96   2.0000      -0.219850        -5.9824
  97   2.0000      -0.208434        -5.6718
  98   2.0000      -0.204860        -5.5745
  99   2.0000      -0.196191        -5.3386
 100   2.0000      -0.194832        -5.3016
 101   0.0000      -0.044834        -1.2200
 102   0.0000      -0.023926        -0.6511
 103   0.0000      -0.009561        -0.2602
 104   0.0000       0.002490         0.0678
 105   0.0000       0.009504         0.2586

MULLIKEN ATOMIC CHARGES
-----------------------
   0 C :   -0.299459
   1 C :   -0.015765
   2 O :   -0.359944
   3 P :    0.607614
   4 S :   -0.334964
   5 O :   -0.370503
   6 C :   -0.004519
   7 C :   -0.314456
   8 S :   -0.086686
   9 C :   -0.325066
  10 S :   -0.069519
  11 P :    0.634107
  12 S :   -0.319417
  13 O :   -0.387398
  14 C :   -0.008273
  15 C :   -0.307378
  16 O :   -0.361644
  17 C :   -0.001465
  18 C :   -0.311293
  19 H :    0.116026
  20 H :    0.111329
  21 H :    0.109527
  22 H :    0.113459
  23 H :    0.110601
  24 H :    0.104679
  25 H :    0.111153
  26 H :    0.125664
  27 H :    0.116215
  28 H :    0.112218
  29 H :    0.190110
  30 H :    0.175968
  31 H :    0.111643
  32 H :    0.102090
  33 H :    0.127351
  34 H :    0.113444
  35 H :    0.111913
  36 H :    0.106843
  37 H :    0.105157
  38 H :    0.125383
  39 H :    0.109285
  40 H :    0.125970
Sum of atomic charges:   -0.0000000

LOEWDIN ATOMIC CHARGES
----------------------
   0 C :   -0.364544
   1 C :   -0.126825
   2 O :   -0.237797
   3 P :    0.568394
   4 S :   -0.332824
   5 O :   -0.244130
   6 C :   -0.120259
   7 C :   -0.369924
   8 S :    0.091621
   9 C :   -0.469348
  10 S :    0.116345
  11 P :    0.570088
  12 S :   -0.310436
  13 O :   -0.253105
  14 C :   -0.123220
  15 C :   -0.366139
  16 O :   -0.233056
  17 C :   -0.110934
  18 C :   -0.364934
  19 H :    0.118936
  20 H :    0.123851
  21 H :    0.129251
  22 H :    0.113306
  23 H :    0.108912
  24 H :    0.118294
  25 H :    0.110113
  26 H :    0.120870
  27 H :    0.123301
  28 H :    0.130626
  29 H :    0.138741
  30 H :    0.132377
  31 H :    0.109226
  32 H :    0.116516
  33 H :    0.121571
  34 H :    0.131180
  35 H :    0.123095
  36 H :    0.118980
  37 H :    0.110465
  38 H :    0.131036
  39 H :    0.128862
  40 H :    0.121521

  Mayer bond orders larger than 0.100000
B(  0-C ,  1-C ) :   1.1608 B(  0-C , 19-H ) :   0.9368 B(  0-C , 20-H ) :   0.9464
B(  0-C , 21-H ) :   0.9404 B(  1-C ,  2-O ) :   0.8987 B(  1-C , 22-H ) :   0.9199
B(  1-C , 23-H ) :   0.9170 B(  2-O ,  3-P ) :   1.1236 B(  3-P ,  4-S ) :   1.5896
B(  3-P ,  5-O ) :   1.1069 B(  3-P ,  8-S ) :   0.9773 B(  4-S ,  8-S ) :   0.1112
B(  5-O ,  6-C ) :   0.9091 B(  6-C ,  7-C ) :   1.1666 B(  6-C , 24-H ) :   0.9339
B(  6-C , 25-H ) :   0.9140 B(  7-C , 26-H ) :   0.9353 B(  7-C , 27-H ) :   0.9447
B(  7-C , 28-H ) :   0.9380 B(  8-S ,  9-C ) :   0.9797 B(  9-C , 10-S ) :   1.0001
B(  9-C , 29-H ) :   0.9029 B(  9-C , 30-H ) :   0.9081 B( 10-S , 11-P ) :   0.9611
B( 11-P , 12-S ) :   1.6357 B( 11-P , 13-O ) :   1.0532 B( 11-P , 16-O ) :   1.1251
B( 13-O , 14-C ) :   0.9142 B( 14-C , 15-C ) :   1.1650 B( 14-C , 31-H ) :   0.9118
B( 14-C , 32-H ) :   0.9329 B( 15-C , 33-H ) :   0.9361 B( 15-C , 34-H ) :   0.9387
B( 15-C , 35-H ) :   0.9464 B( 16-O , 17-C ) :   0.9044 B( 17-C , 18-C ) :   1.1681
B( 17-C , 36-H ) :   0.9299 B( 17-C , 37-H ) :   0.9271 B( 18-C , 38-H ) :   0.9463
B( 18-C , 39-H ) :   0.9372 B( 18-C , 40-H ) :   0.9363

Dispersion correction           -0.067988031
FINAL SINGLE POINT ENERGY     -2929.518815022193

DIPOLE MOMENT
-------------

Method             : SCF
Type of density    : Electron Density
Multiplicity       :   1
Irrep              :   0
Energy             : -2929.6364301035896460 Eh
Relativity type    :
Basis              : AO
                                X                 Y                 Z
Electronic contribution:      2.718939150       6.913128301       2.551506497
Nuclear contribution   :     -3.676006392      -7.858925055      -1.802775252
                        -----------------------------------------
Total Dipole Moment    :     -0.957067241      -0.945796754       0.748731246
                        -----------------------------------------
Magnitude (a.u.)       :      1.539840148
Magnitude (Debye)      :      3.913962609

Rotational constants in cm-1:             0.012877             0.005208             0.005102
Rotational constants in MHz :           386.029465           156.126788           152.968580

                             ****ORCA TERMINATED NORMALLY****
TOTAL RUN TIME: 0 days 0 hours 0 minutes 21 seconds 817 msec
