                         Program Version 6.0.0  -   RELEASE  -
|  1> ! r2scan-3c def2/J RI DEFGRID2 scfconv6 printgap
|  2> %output
|  3>     printlevel normal
|  4> end
|  5> %cpcm
|  6>     smd true
|  7>     smdsolvent "water"
|  8> end
|  9> * xyz 0 1
| 10> C -2.5920393418 -0.693161297 -7.29849e-05
| 11> C -2.5920528272 0.6931257087 -9.828e-06
| 12> C -1.4006354594 1.4149321199 8.02159e-05
| 13> C -0.220431498 0.7006229371 3.80295e-05
| 14> C -0.2204160385 -0.7006242867 -1.66157e-05
| 15> C -1.4006077443 -1.4149478006 -8.90677e-05
| 16> C 1.1861042614 -1.156239973 9.8212e-05
| 17> O 1.6372250043 -2.2800408421 2.60155e-05
| 18> N 1.9464462991 1.52525e-05 -3.80035e-05
| 19> C 1.1860825106 1.1562547448 -2.60036e-05
| 20> O 1.6371814227 2.2800584697 -3.52645e-05
| 21> H -3.5305514169 -1.2244001841 0.0002942311
| 22> H -3.5305715232 1.2243469024 0.0001465971
| 23> H -1.3904874791 2.4931093173 0.000224624
| 24> H -1.3904395908 -2.4931230529 0.0001131317
| 25> H 2.9578148214 2.62413e-05 -0.0001269847
| 26> *
| 27>
| 28>                          ****END OF INPUT****

CARTESIAN COORDINATES (ANGSTROEM)
---------------------------------
  C     -2.592039   -0.693161   -0.000073
  C     -2.592053    0.693126   -0.000010
  C     -1.400635    1.414932    0.000080
  C     -0.220431    0.700623    0.000038
  C     -0.220416   -0.700624   -0.000017
  C     -1.400608   -1.414948   -0.000089
  C      1.186104   -1.156240    0.000098
  O      1.637225   -2.280041    0.000026
  N      1.946446    0.000015   -0.000038
  C      1.186083    1.156255   -0.000026
  O      1.637181    2.280058   -0.000035
  H     -3.530551   -1.224400    0.000294
  H     -3.530572    1.224347    0.000147
  H     -1.390487    2.493109    0.000225
  H     -1.390440   -2.493123    0.000113
  H      2.957815    0.000026   -0.000127

 Total Charge           Charge          ....    0
 Multiplicity           Mult            ....    1
 Number of Electrons    NEL             ....   76
 Basis Dimension        Dim             ....  249

ORBITAL ENERGIES
----------------

  NO   OCC          E(Eh)            E(eV)
   0   2.0000     -18.960733      -515.9478
   1   2.0000     -18.960732      -515.9477
   2   2.0000     -14.214018      -386.7831
   3   2.0000     -10.167002      -276.6582
   4   2.0000     -10.167000      -276.6581
   5   2.0000     -10.065208      -273.8882
   6   2.0000     -10.064809      -273.8774
   7   2.0000     -10.059533      -273.7338
   8   2.0000     -10.059523      -273.7336
   9   2.0000     -10.054485      -273.5965
  10   2.0000     -10.054029      -273.5840
  11   2.0000      -1.051573       -28.6148
  12   2.0000      -1.034078       -28.1387
  13   2.0000      -0.935341       -25.4519
  14   2.0000      -0.848141       -23.0791
  15   2.0000      -0.755330       -20.5536
  16   2.0000      -0.743583       -20.2339
  17   2.0000      -0.649530       -17.6746
  18   2.0000      -0.636351       -17.3160
  19   2.0000      -0.583524       -15.8785
  20   2.0000      -0.554745       -15.0954
  21   2.0000      -0.496096       -13.4995
  22   2.0000      -0.485817       -13.2198
  23   2.0000      -0.463528       -12.6132
  24   2.0000      -0.452757       -12.3201
  25   2.0000      -0.428200       -11.6519
  26   2.0000      -0.427055       -11.6208
  27   2.0000      -0.417060       -11.3488
  28   2.0000      -0.410877       -11.1805
  29   2.0000      -0.386229       -10.5098
  30   2.0000      -0.359616        -9.7856
  31   2.0000      -0.349644        -9.5143
  32   2.0000      -0.338040        -9.1985
  33   2.0000      -0.284766        -7.7489
  34   2.0000      -0.274897        -7.4803
  35   2.0000      -0.261214        -7.1080
  36   2.0000      -0.256082        -6.9683
  37   2.0000      -0.251992        -6.8570
  38   0.0000      -0.116775        -3.1776
  39   0.0000      -0.067141        -1.8270
  40   0.0000      -0.001548        -0.0421
  41   0.0000       0.042334         1.1520
  42   0.0000       0.069388         1.8881

MULLIKEN ATOMIC CHARGES
-----------------------
   0 C :   -0.141231
   1 C :   -0.141222
   2 C :   -0.264246
   3 C :    0.185152
   4 C :    0.185104
   5 C :   -0.264241
   6 C :    0.146039
   7 O :   -0.438863
   8 N :   -0.070091
   9 C :    0.146022
  10 O :   -0.438859
  11 H :    0.191238
  12 H :    0.191238
  13 H :    0.198015
  14 H :    0.198016
  15 H :    0.317929
Sum of atomic charges:   -0.0000000

LOEWDIN ATOMIC CHARGES
----------------------
   0 C :   -0.131139
   1 C :   -0.131138
   2 C :   -0.102216
   3 C :   -0.004717
   4 C :   -0.004718
   5 C :   -0.102216
   6 C :    0.387764
   7 O :   -0.439550
   8 N :   -0.486900
   9 C :    0.387760
  10 O :   -0.439546
  11 H :    0.186274
  12 H :    0.186273
  13 H :    0.193299
  14 H :    0.193299
  15 H :    0.307471

  Mayer bond orders larger than 0.100000
B(  0-C ,  1-C ) :   1.3923 B(  0-C ,  5-C ) :   1.3398 B(  0-C , 11-H ) :   0.9523
B(  1-C ,  2-C ) :   1.3398 B(  1-C , 12-H ) :   0.9523 B(  2-C ,  3-C ) :   1.3282
B(  2-C , 13-H ) :   0.9478 B(  3-C ,  4-C ) :   1.2543 B(  3-C ,  9-C ) :   0.9579
B(  3-C , 10-O ) :  -0.1067 B(  4-C ,  5-C ) :   1.3282 B(  4-C ,  6-C ) :   0.9579
B(  4-C ,  7-O ) :  -0.1067 B(  5-C , 14-H ) :   0.9478 B(  6-C ,  7-O ) :   2.0317
B(  6-C ,  8-N ) :   1.0637 B(  8-N ,  9-C ) :   1.0636 B(  8-N , 15-H ) :   0.8752
B(  9-C , 10-O ) :   2.0317

Dispersion correction           -0.006265293
FINAL SINGLE POINT ENERGY      -513.012154059882

DIPOLE MOMENT
-------------

Method             : SCF
Type of density    : Electron Density
Multiplicity       :   1
Irrep              :   0
Energy             :  -513.0133553977593692 Eh
Relativity type    :
Basis              : AO
                                X                 Y                 Z
Electronic contribution:      4.745023736       0.000046389      -0.000305402
Nuclear contribution   :     -6.399394032      -0.000037910       0.000610968
                        -----------------------------------------
Total Dipole Moment    :     -1.654370295       0.000008479       0.000305566
                        -----------------------------------------
Magnitude (a.u.)       :      1.654370323
Magnitude (Debye)      :      4.205075179

Rotational constants in cm-1:             0.059058             0.040121             0.023891
Rotational constants in MHz :          1770.526803          1202.811714           716.235427

                             ****ORCA TERMINATED NORMALLY****
TOTAL RUN TIME: 0 days 0 hours 0 minutes 43 seconds 955 msec
