                         Program Version 6.0.0  -   RELEASE  -
|  1> ! pbe def2-sv(p) def2/J RI DEFGRID1 loosescf d4 GCP(DFT/SV(P)) printgap
|  2> %output
|  3>     printlevel normal
|  4> end
|  5> * xyz 0 1
|  6> C 0.5876380602 1.7078313758 -0.0165263937
|  7> C 1.3987551286 0.4282971439 -0.2635524159
|  8> H 1.5964223075 0.3221020566 -1.3413093861
|  9> C 0.565457768 -0.7759286236 0.1936813432
| 10> H 0.4036665626 -0.6905423043 1.2792067103
| 11> C -0.7902873285 -0.7585687433 -0.5195488531
| 12> H -0.6196110879 -0.8941711081 -1.5976761629
| 13> C -1.476617213 0.6036881628 -0.2944013958
| 14> H -2.3665248385 0.6746624636 -0.9389013536
| 15> O -0.6600067295 1.6582043064 -0.6971455597
| 16> O -1.8348712017 0.7591524261 1.0492603789
| 17> O -1.6561902304 -1.7454566925 -0.0230078646
| 18> O 1.192113944 -1.999848764 -0.1086112555
| 19> O 2.5995122273 0.4021921041 0.470354707
| 20> H 1.0905536738 2.5857938262 -0.4222169789
| 21> H 0.4243547159 1.8350091699 1.0598760844
| 22> H -2.2927618771 -0.0505805907 1.3272927034
| 23> H -1.1930161555 -2.5968850652 -0.0447311279
| 24> H 2.0901993658 -1.9784645743 0.2534560118
| 25> H 3.1768322117 1.1249147664 0.1877621273
| 26> *
| 27>
| 28>                          ****END OF INPUT****

CARTESIAN COORDINATES (ANGSTROEM)
---------------------------------
  C      0.587638    1.707831   -0.016526
  C      1.398755    0.428297   -0.263552
  H      1.596422    0.322102   -1.341309
  C      0.565458   -0.775929    0.193681
  H      0.403667   -0.690542    1.279207
  C     -0.790287   -0.758569   -0.519549
  H     -0.619611   -0.894171   -1.597676
  C     -1.476617    0.603688   -0.294401
  H     -2.366525    0.674662   -0.938901
  O     -0.660007    1.658204   -0.697146
  O     -1.834871    0.759152    1.049260
  O     -1.656190   -1.745457   -0.023008
  O      1.192114   -1.999849   -0.108611
  O      2.599512    0.402192    0.470355
  H      1.090554    2.585794   -0.422217
  H      0.424355    1.835009    1.059876
  H     -2.292762   -0.050581    1.327293
  H     -1.193016   -2.596885   -0.044731
  H      2.090199   -1.978465    0.253456
  H      3.176832    1.124915    0.187762

 Total Charge           Charge          ....    0
 Multiplicity           Mult            ....    1
 Number of Electrons    NEL             ....   80
 Basis Dimension        Dim             ....  160

ORBITAL ENERGIES
----------------

  NO   OCC          E(Eh)            E(eV)
   0   2.0000     -18.767607      -510.6925
   1   2.0000     -18.767483      -510.6892
   2   2.0000     -18.760304      -510.4938
   3   2.0000     -18.755685      -510.3681
   4   2.0000     -18.750300      -510.2216
   5   2.0000      -9.981880      -271.6208
   6   2.0000      -9.945441      -270.6292
   7   2.0000      -9.940959      -270.5072
   8   2.0000      -9.940592      -270.4973
   9   2.0000      -9.933624      -270.3076
  10   2.0000      -0.978099       -26.6154
  11   2.0000      -0.949320       -25.8323
  12   2.0000      -0.939703       -25.5706
  13   2.0000      -0.920277       -25.0420
  14   2.0000      -0.904718       -24.6186
  15   2.0000      -0.703451       -19.1419
  16   2.0000      -0.677372       -18.4322
  17   2.0000      -0.586978       -15.9725
  18   2.0000      -0.575646       -15.6641
  19   2.0000      -0.525078       -14.2881
  20   2.0000      -0.501294       -13.6409
  21   2.0000      -0.481897       -13.1131
  22   2.0000      -0.467860       -12.7311
  23   2.0000      -0.456484       -12.4216
  24   2.0000      -0.436072       -11.8661
  25   2.0000      -0.414050       -11.2669
  26   2.0000      -0.408001       -11.1023
  27   2.0000      -0.381118       -10.3708
  28   2.0000      -0.366538        -9.9740
  29   2.0000      -0.352690        -9.5972
  30   2.0000      -0.326934        -8.8963
  31   2.0000      -0.315233        -8.5779
  32   2.0000      -0.300189        -8.1686
  33   2.0000      -0.290844        -7.9143
  34   2.0000      -0.278651        -7.5825
  35   2.0000      -0.249233        -6.7820
  36   2.0000      -0.232104        -6.3159
  37   2.0000      -0.229068        -6.2333
  38   2.0000      -0.224303        -6.1036
  39   2.0000      -0.208968        -5.6863
  40   0.0000       0.007285         0.1982
  41   0.0000       0.032502         0.8844
  42   0.0000       0.041845         1.1387
  43   0.0000       0.059335         1.6146
  44   0.0000       0.070523         1.9190

MULLIKEN ATOMIC CHARGES
-----------------------
   0 C :    0.083429
   1 C :   -0.020737
   2 H :    0.060725
   3 C :    0.050302
   4 H :    0.056095
   5 C :    0.038555
   6 H :    0.065466
   7 C :    0.186735
   8 H :    0.069865
   9 O :   -0.305981
  10 O :   -0.415319
  11 O :   -0.428476
  12 O :   -0.430325
  13 O :   -0.422076
  14 H :    0.083729
  15 H :    0.084707
  16 H :    0.308637
  17 H :    0.316217
  18 H :    0.310776
  19 H :    0.307679
Sum of atomic charges:   -0.0000000

LOEWDIN ATOMIC CHARGES
----------------------
   0 C :   -0.126328
   1 C :   -0.090698
   2 H :    0.101520
   3 C :   -0.077823
   4 H :    0.105458
   5 C :   -0.089321
   6 H :    0.108110
   7 C :    0.011851
   8 H :    0.099524
   9 O :   -0.136772
  10 O :   -0.322234
  11 O :   -0.321344
  12 O :   -0.328343
  13 O :   -0.322415
  14 H :    0.111914
  15 H :    0.113475
  16 H :    0.288743
  17 H :    0.293350
  18 H :    0.289774
  19 H :    0.291557

  Mayer bond orders larger than 0.100000
B(  0-C ,  1-C ) :   1.0512 B(  0-C ,  9-O ) :   0.9990 B(  0-C , 14-H ) :   0.9262
B(  0-C , 15-H ) :   0.8880 B(  1-C ,  2-H ) :   0.8798 B(  1-C ,  3-C ) :   1.0193
B(  1-C , 13-O ) :   1.0604 B(  3-C ,  4-H ) :   0.8764 B(  3-C ,  5-C ) :   1.0003
B(  3-C , 12-O ) :   1.0799 B(  5-C ,  6-H ) :   0.8776 B(  5-C ,  7-C ) :   1.0051
B(  5-C , 11-O ) :   1.0725 B(  7-C ,  8-H ) :   0.9046 B(  7-C ,  9-O ) :   1.0852
B(  7-C , 10-O ) :   1.0462 B( 10-O , 16-H ) :   0.8212 B( 11-O , 17-H ) :   0.8346
B( 12-O , 18-H ) :   0.8362 B( 13-O , 19-H ) :   0.8463

Dispersion correction           -0.019178629
FINAL SINGLE POINT ENERGY      -571.420746524618

DIPOLE MOMENT
-------------

Method             : SCF
Type of density    : Electron Density
Multiplicity       :   1
Irrep              :   0
Energy             :  -571.5294290371423358 Eh
Relativity type    :
Basis              : AO
                                X                 Y                 Z
Electronic contribution:     -1.251584646      -0.533827580       0.113136495
Nuclear contribution   :      2.161955798       0.297606483      -0.212338169
                        -----------------------------------------
Total Dipole Moment    :      0.910371152      -0.236221097      -0.099201674
                        -----------------------------------------
Magnitude (a.u.)       :      0.945736228
Magnitude (Debye)      :      2.403870453

Rotational constants in cm-1:             0.057518             0.044712             0.029040
Rotational constants in MHz :          1724.344310          1340.440064           870.593177

                             ****ORCA TERMINATED NORMALLY****
TOTAL RUN TIME: 0 days 0 hours 0 minutes 11 seconds 742 msec
