                         Program Version 6.0.0  -   RELEASE  -
|  1> ! pbe def2-sv(p) def2/J RI DEFGRID1 loosescf d4 GCP(DFT/SV(P)) printgap
|  2> %output
|  3>     printlevel normal
|  4> end
|  5> * xyz 0 1
|  6> C 0.2322124898 -2.2762133586 2.3388360013
|  7> C 1.3126270372 -1.2270526442 2.179591818
|  8> O 1.9276230517 -1.4090138114 0.8787388145
|  9> P 2.6086433145 -0.2359808453 0.0771136241
| 10> S 3.4872627622 -0.8709491445 -1.5481764749
| 11> O 3.5452875561 0.4134657651 1.1848621813
| 12> C 4.6514093934 1.2798930866 0.8671655702
| 13> C 4.2043701365 2.5752642763 0.2221431105
| 14> S 1.080468227 1.2305591537 -0.2104637188
| 15> C 0.3886347779 0.4837634586 -1.7035668455
| 16> S -0.5050304781 -1.0568822503 -1.3599479436
| 17> P -2.1972159698 -0.1280416118 -0.4956492036
| 18> S -2.8628480913 1.4523304173 -1.4532439388
| 19> O -1.8498495241 0.1407598884 1.0361050781
| 20> C -1.8549818741 1.4427702005 1.6505316984
| 21> C -3.1742113337 1.6828144094 2.3569753831
| 22> O -3.0704333032 -1.4482793155 -0.4460251615
| 23> C -4.2668179221 -1.5760349131 0.353869485
| 24> C -5.4568768654 -0.899622071 -0.2972238631
| 25> H -0.5432272334 -2.1363187204 1.5889249908
| 26> H 0.657660548 -3.2678212614 2.2146081153
| 27> H -0.2058593047 -2.1905233545 3.3279865938
| 28> H 2.0976011745 -1.3385358901 2.9297180599
| 29> H 0.9025453268 -0.2143289511 2.2337538155
| 30> H 5.1269384663 1.453188945 1.8335702834
| 31> H 5.3337645856 0.7367195924 0.2067617669
| 32> H 3.7984040682 2.3775311823 -0.7687646075
| 33> H 3.438865328 3.0564652247 0.825617239
| 34> H 5.057732989 3.2385982875 0.1245587238
| 35> H 1.2001882587 0.2354937098 -2.3881447683
| 36> H -0.294205832 1.2125407155 -2.1427710082
| 37> H -1.0186604698 1.4337052883 2.3505507308
| 38> H -1.681306199 2.2043798798 0.8847780896
| 39> H -3.1350650238 2.6399728015 2.8666110782
| 40> H -3.984715463 1.7044330239 1.6309926746
| 41> H -3.3644764582 0.8976978165 3.0835545059
| 42> H -4.4147565598 -2.6549607279 0.426682478
| 43> H -4.0720279958 -1.1624735115 1.3465943464
| 44> H -6.3420897618 -1.0699751009 0.3074203589
| 45> H -5.286038349 0.1717359008 -0.3852973394
| 46> H -5.6189488693 -1.3027742954 -1.2934847583
| 47> *
| 48>
| 49>                          ****END OF INPUT****

CARTESIAN COORDINATES (ANGSTROEM)
---------------------------------
  C      0.232212   -2.276213    2.338836
  C      1.312627   -1.227053    2.179592
  O      1.927623   -1.409014    0.878739
  P      2.608643   -0.235981    0.077114
  S      3.487263   -0.870949   -1.548176
  O      3.545288    0.413466    1.184862
  C      4.651409    1.279893    0.867166
  C      4.204370    2.575264    0.222143
  S      1.080468    1.230559   -0.210464
  C      0.388635    0.483763   -1.703567
  S     -0.505030   -1.056882   -1.359948
  P     -2.197216   -0.128042   -0.495649
  S     -2.862848    1.452330   -1.453244
  O     -1.849850    0.140760    1.036105
  C     -1.854982    1.442770    1.650532
  C     -3.174211    1.682814    2.356975
  O     -3.070433   -1.448279   -0.446025
  C     -4.266818   -1.576035    0.353869
  C     -5.456877   -0.899622   -0.297224
  H     -0.543227   -2.136319    1.588925
  H      0.657661   -3.267821    2.214608
  H     -0.205859   -2.190523    3.327987
  H      2.097601   -1.338536    2.929718
  H      0.902545   -0.214329    2.233754
  H      5.126938    1.453189    1.833570
  H      5.333765    0.736720    0.206762
  H      3.798404    2.377531   -0.768765
  H      3.438865    3.056465    0.825617
  H      5.057733    3.238598    0.124559
  H      1.200188    0.235494   -2.388145
  H     -0.294206    1.212541   -2.142771
  H     -1.018660    1.433705    2.350551
  H     -1.681306    2.204380    0.884778
  H     -3.135065    2.639973    2.866611
  H     -3.984715    1.704433    1.630993
  H     -3.364476    0.897698    3.083555
  H     -4.414757   -2.654961    0.426682
  H     -4.072028   -1.162474    1.346594
  H     -6.342090   -1.069975    0.307420
  H     -5.286038    0.171736   -0.385297
  H     -5.618949   -1.302774   -1.293485

 Total Charge           Charge          ....    0
 Multiplicity           Mult            ....    1
 Number of Electrons    NEL             ....  202
 Basis Dimension        Dim             ....  334

ORBITAL ENERGIES
----------------

  NO   OCC          E(Eh)            E(eV)
   0   2.0000     -88.042683     -2395.7632
   1   2.0000     -88.038818     -2395.6580
   2   2.0000     -87.992743     -2394.4043
   3   2.0000     -87.987100     -2394.2507
   4   2.0000     -76.430665     -2079.7841
   5   2.0000     -76.426840     -2079.6800
   6   2.0000     -18.799438      -511.5587
   7   2.0000     -18.798951      -511.5455
   8   2.0000     -18.796874      -511.4889
   9   2.0000     -18.789886      -511.2988
  10   2.0000      -9.962624      -271.0968
  11   2.0000      -9.956786      -270.9379
  12   2.0000      -9.956362      -270.9264
  13   2.0000      -9.954150      -270.8662
  14   2.0000      -9.950023      -270.7539
  15   2.0000      -9.892522      -269.1892
  16   2.0000      -9.888029      -269.0670
  17   2.0000      -9.886295      -269.0198
  18   2.0000      -9.882866      -268.9264
  19   2.0000      -7.687307      -209.1823
  20   2.0000      -7.684125      -209.0957
  21   2.0000      -7.637612      -207.8300
  22   2.0000      -7.632408      -207.6884
  23   2.0000      -6.428194      -174.9200
  24   2.0000      -6.424348      -174.8154
  25   2.0000      -5.714961      -155.5120
  26   2.0000      -5.712015      -155.4318
  27   2.0000      -5.711907      -155.4289
  28   2.0000      -5.708891      -155.3468
  29   2.0000      -5.704479      -155.2268
  30   2.0000      -5.700783      -155.1262
  31   2.0000      -5.666409      -154.1908
  32   2.0000      -5.661349      -154.0531
  33   2.0000      -5.658580      -153.9778
  34   2.0000      -5.657547      -153.9497
  35   2.0000      -5.652935      -153.8242
  36   2.0000      -5.652597      -153.8150
  37   2.0000      -4.651099      -126.5629
  38   2.0000      -4.649601      -126.5221
  39   2.0000      -4.648669      -126.4967
  40   2.0000      -4.647272      -126.4587
  41   2.0000      -4.645999      -126.4241
  42   2.0000      -4.644613      -126.3863
  43   2.0000      -0.992998       -27.0209
  44   2.0000      -0.989408       -26.9232
  45   2.0000      -0.951059       -25.8796
  46   2.0000      -0.945306       -25.7231
  47   2.0000      -0.764490       -20.8028
  48   2.0000      -0.726169       -19.7601
  49   2.0000      -0.712381       -19.3849
  50   2.0000      -0.694455       -18.8971
  51   2.0000      -0.690363       -18.7857
  52   2.0000      -0.676275       -18.4024
  53   2.0000      -0.653239       -17.7755
  54   2.0000      -0.638816       -17.3831
  55   2.0000      -0.601882       -16.3780
  56   2.0000      -0.592862       -16.1326
  57   2.0000      -0.583495       -15.8777
  58   2.0000      -0.570777       -15.5316
  59   2.0000      -0.558362       -15.1938
  60   2.0000      -0.508778       -13.8446
  61   2.0000      -0.502453       -13.6725
  62   2.0000      -0.483178       -13.1479
  63   2.0000      -0.475610       -12.9420
  64   2.0000      -0.463045       -12.6001
  65   2.0000      -0.448651       -12.2084
  66   2.0000      -0.442443       -12.0395
  67   2.0000      -0.440024       -11.9737
  68   2.0000      -0.432423       -11.7668
  69   2.0000      -0.419003       -11.4016
  70   2.0000      -0.412371       -11.2212
  71   2.0000      -0.399127       -10.8608
  72   2.0000      -0.391131       -10.6432
  73   2.0000      -0.384618       -10.4660
  74   2.0000      -0.380619       -10.3572
  75   2.0000      -0.375591       -10.2203
  76   2.0000      -0.365668        -9.9503
  77   2.0000      -0.363225        -9.8839
  78   2.0000      -0.357746        -9.7348
  79   2.0000      -0.356432        -9.6990
  80   2.0000      -0.353079        -9.6078
  81   2.0000      -0.346523        -9.4294
  82   2.0000      -0.344738        -9.3808
  83   2.0000      -0.340572        -9.2674
  84   2.0000      -0.337426        -9.1818
  85   2.0000      -0.324528        -8.8309
  86   2.0000      -0.310890        -8.4598
  87   2.0000      -0.302765        -8.2387
  88   2.0000      -0.299383        -8.1466
  89   2.0000      -0.297683        -8.1004
  90   2.0000      -0.296532        -8.0690
  91   2.0000      -0.283481        -7.7139
  92   2.0000      -0.273847        -7.4518
  93   2.0000      -0.266324        -7.2470
  94   2.0000      -0.259177        -7.0526
  95   2.0000      -0.234592        -6.3836
  96   2.0000      -0.219820        -5.9816
  97   2.0000      -0.214732        -5.8432
  98   2.0000      -0.206373        -5.6157
  99   2.0000      -0.202646        -5.5143
 100   2.0000      -0.200147        -5.4463
 101   0.0000      -0.046592        -1.2678
 102   0.0000      -0.023987        -0.6527
 103   0.0000      -0.002622        -0.0713
 104   0.0000      -0.000698        -0.0190
 105   0.0000       0.012939         0.3521

MULLIKEN ATOMIC CHARGES
-----------------------
   0 C :   -0.283179
   1 C :   -0.017454
   2 O :   -0.350802
   3 P :    0.603385
   4 S :   -0.308221
   5 O :   -0.385714
   6 C :    0.000970
   7 C :   -0.319238
   8 S :   -0.108746
   9 C :   -0.383147
  10 S :   -0.050313
  11 P :    0.637165
  12 S :   -0.324092
  13 O :   -0.382271
  14 C :   -0.018979
  15 C :   -0.295640
  16 O :   -0.377081
  17 C :   -0.018866
  18 C :   -0.310689
  19 H :    0.129672
  20 H :    0.118072
  21 H :    0.100546
  22 H :    0.105777
  23 H :    0.106038
  24 H :    0.104994
  25 H :    0.114091
  26 H :    0.131080
  27 H :    0.116320
  28 H :    0.114956
  29 H :    0.195674
  30 H :    0.192844
  31 H :    0.109904
  32 H :    0.112044
  33 H :    0.114062
  34 H :    0.119668
  35 H :    0.116305
  36 H :    0.112805
  37 H :    0.108233
  38 H :    0.110153
  39 H :    0.135855
  40 H :    0.123819
Sum of atomic charges:    0.0000000

LOEWDIN ATOMIC CHARGES
----------------------
   0 C :   -0.353868
   1 C :   -0.112804
   2 O :   -0.233687
   3 P :    0.571857
   4 S :   -0.305956
   5 O :   -0.250190
   6 C :   -0.114624
   7 C :   -0.371318
   8 S :    0.073442
   9 C :   -0.492278
  10 S :    0.105849
  11 P :    0.571928
  12 S :   -0.311033
  13 O :   -0.242057
  14 C :   -0.126772
  15 C :   -0.360771
  16 O :   -0.243120
  17 C :   -0.111847
  18 C :   -0.365288
  19 H :    0.121538
  20 H :    0.128770
  21 H :    0.126028
  22 H :    0.114772
  23 H :    0.101868
  24 H :    0.118792
  25 H :    0.114412
  26 H :    0.122835
  27 H :    0.122531
  28 H :    0.132058
  29 H :    0.129381
  30 H :    0.127728
  31 H :    0.112012
  32 H :    0.105181
  33 H :    0.132496
  34 H :    0.123467
  35 H :    0.122486
  36 H :    0.122879
  37 H :    0.109526
  38 H :    0.129790
  39 H :    0.122565
  40 H :    0.131422

  Mayer bond orders larger than 0.100000
B(  0-C ,  1-C ) :   1.1687 B(  0-C , 19-H ) :   0.9368 B(  0-C , 20-H ) :   0.9470
B(  0-C , 21-H ) :   0.9405 B(  1-C ,  2-O ) :   0.8878 B(  1-C , 22-H ) :   0.9317
B(  1-C , 23-H ) :   0.9064 B(  2-O ,  3-P ) :   1.1448 B(  3-P ,  4-S ) :   1.6423
B(  3-P ,  5-O ) :   1.0880 B(  3-P ,  8-S ) :   0.9393 B(  4-S ,  8-S ) :   0.1071
B(  5-O ,  6-C ) :   0.9057 B(  6-C ,  7-C ) :   1.1664 B(  6-C , 24-H ) :   0.9346
B(  6-C , 25-H ) :   0.9201 B(  7-C , 26-H ) :   0.9343 B(  7-C , 27-H ) :   0.9435
B(  7-C , 28-H ) :   0.9366 B(  8-S ,  9-C ) :   0.9964 B(  9-C , 10-S ) :   1.0074
B(  9-C , 29-H ) :   0.8719 B(  9-C , 30-H ) :   0.8694 B( 10-S , 11-P ) :   0.9715
B( 10-S , 12-S ) :   0.1070 B( 11-P , 12-S ) :   1.6042 B( 11-P , 13-O ) :   1.0685
B( 11-P , 16-O ) :   1.1184 B( 13-O , 14-C ) :   0.9040 B( 14-C , 15-C ) :   1.1666
B( 14-C , 31-H ) :   0.9239 B( 14-C , 32-H ) :   0.9019 B( 15-C , 33-H ) :   0.9390
B( 15-C , 34-H ) :   0.9382 B( 15-C , 35-H ) :   0.9431 B( 16-O , 17-C ) :   0.9062
B( 17-C , 18-C ) :   1.1672 B( 17-C , 36-H ) :   0.9349 B( 17-C , 37-H ) :   0.9203
B( 18-C , 38-H ) :   0.9381 B( 18-C , 39-H ) :   0.9325 B( 18-C , 40-H ) :   0.9451

Dispersion correction           -0.066066069
FINAL SINGLE POINT ENERGY     -2929.523737763974

DIPOLE MOMENT
-------------

Method             : SCF
Type of density    : Electron Density
Multiplicity       :   1
Irrep              :   0
Energy             : -2929.6435208923599021 Eh
Relativity type    :
Basis              : AO
                                X                 Y                 Z
Electronic contribution:     11.404102685      -5.412585899     -18.357665973
Nuclear contribution   :    -11.978402471       5.921541362      20.438809774
                        -----------------------------------------
Total Dipole Moment    :     -0.574299786       0.508955463       2.081143800
                        -----------------------------------------
Magnitude (a.u.)       :      2.218110779
Magnitude (Debye)      :      5.637989541

Rotational constants in cm-1:             0.013865             0.004606             0.004584
Rotational constants in MHz :           415.675347           138.074072           137.439045

                             ****ORCA TERMINATED NORMALLY****
TOTAL RUN TIME: 0 days 0 hours 0 minutes 21 seconds 809 msec
