                         Program Version 6.0.0  -   RELEASE  -
|  1> ! pbe def2-sv(p) def2/J RI DEFGRID1 loosescf d4 GCP(DFT/SV(P)) printgap
|  2> %output
|  3>     printlevel normal
|  4> end
|  5> * xyz 0 1
|  6> C 2.8155994792 0.0173451488 -3.4894707193
|  7> C 3.0498259935 -0.4698756718 -2.0758346852
|  8> O 2.4690555251 0.5052149175 -1.1719872652
|  9> P 2.1615332706 0.1965869606 0.3366441198
| 10> S 1.32454227 1.7333047247 1.2097555305
| 11> O 3.6249700537 -0.2042236846 0.8377204947
| 12> C 3.935317191 -0.9118989358 2.0507890091
| 13> C 3.4867983891 -0.1720497234 3.2942673259
| 14> S 1.1118601214 -1.6550432415 0.4546006582
| 15> C -0.2976827521 -1.1617383613 1.498798392
| 16> S -1.9097193716 -1.4061728542 0.7193839404
| 17> P -1.9455764244 0.3167369168 -0.5311139014
| 18> S -0.6041778344 0.3674653174 -1.9569765681
| 19> O -1.830481882 1.5644201322 0.4253080844
| 20> C -2.9033865081 2.1678861979 1.1890866314
| 21> C -3.4738531211 1.2400749262 2.2407763284
| 22> O -3.4517358573 0.3870738535 -1.0304160383
| 23> C -3.905282856 -0.3045360877 -2.2081253209
| 24> C -3.8416331343 -1.809100744 -2.0474777659
| 25> H 3.2305256814 -0.7008519164 -4.1888004019
| 26> H 1.7474549421 0.1217298559 -3.6669123284
| 27> H 3.2881497821 0.9844311782 -3.6346202499
| 28> H 4.1133249704 -0.5494893084 -1.8413905847
| 29> H 2.5624933826 -1.4345994071 -1.9050430184
| 30> H 3.4724421466 -1.901765904 1.9979018833
| 31> H 5.0217870982 -1.0097046275 2.0168007453
| 32> H 3.9019089252 0.8327349524 3.3064922295
| 33> H 2.401350423 -0.0910371964 3.3156585568
| 34> H 3.8218417216 -0.7118508509 4.1739580843
| 35> H -0.1694823222 -0.1072576817 1.7646893163
| 36> H -0.2953572645 -1.8030300891 2.3761002272
| 37> H -2.4195677165 3.0370989989 1.6384035884
| 38> H -3.6767551689 2.4897814493 0.4892928188
| 39> H -3.9636218874 0.3891262215 1.7727660931
| 40> H -2.6862089031 0.8809771896 2.8985839956
| 41> H -4.2029370497 1.7886486412 2.8291318777
| 42> H -4.9302269952 0.0469169438 -2.3348269654
| 43> H -3.2916066389 0.0181025569 -3.0549700031
| 44> H -2.8030766571 -2.1311977296 -1.9836310606
| 45> H -4.3604905657 -2.1180194285 -1.1436053719
| 46> H -4.3028795623 -2.2810864099 -2.9089625688
| 47> *
| 48>
| 49>                          ****END OF INPUT****

CARTESIAN COORDINATES (ANGSTROEM)
---------------------------------
  C      2.815599    0.017345   -3.489471
  C      3.049826   -0.469876   -2.075835
  O      2.469056    0.505215   -1.171987
  P      2.161533    0.196587    0.336644
  S      1.324542    1.733305    1.209756
  O      3.624970   -0.204224    0.837720
  C      3.935317   -0.911899    2.050789
  C      3.486798   -0.172050    3.294267
  S      1.111860   -1.655043    0.454601
  C     -0.297683   -1.161738    1.498798
  S     -1.909719   -1.406173    0.719384
  P     -1.945576    0.316737   -0.531114
  S     -0.604178    0.367465   -1.956977
  O     -1.830482    1.564420    0.425308
  C     -2.903387    2.167886    1.189087
  C     -3.473853    1.240075    2.240776
  O     -3.451736    0.387074   -1.030416
  C     -3.905283   -0.304536   -2.208125
  C     -3.841633   -1.809101   -2.047478
  H      3.230526   -0.700852   -4.188800
  H      1.747455    0.121730   -3.666912
  H      3.288150    0.984431   -3.634620
  H      4.113325   -0.549489   -1.841391
  H      2.562493   -1.434599   -1.905043
  H      3.472442   -1.901766    1.997902
  H      5.021787   -1.009705    2.016801
  H      3.901909    0.832735    3.306492
  H      2.401350   -0.091037    3.315659
  H      3.821842   -0.711851    4.173958
  H     -0.169482   -0.107258    1.764689
  H     -0.295357   -1.803030    2.376100
  H     -2.419568    3.037099    1.638404
  H     -3.676755    2.489781    0.489293
  H     -3.963622    0.389126    1.772766
  H     -2.686209    0.880977    2.898584
  H     -4.202937    1.788649    2.829132
  H     -4.930227    0.046917   -2.334827
  H     -3.291607    0.018103   -3.054970
  H     -2.803077   -2.131198   -1.983631
  H     -4.360491   -2.118019   -1.143605
  H     -4.302880   -2.281086   -2.908963

 Total Charge           Charge          ....    0
 Multiplicity           Mult            ....    1
 Number of Electrons    NEL             ....  202
 Basis Dimension        Dim             ....  334

ORBITAL ENERGIES
----------------

  NO   OCC          E(Eh)            E(eV)
   0   2.0000     -88.039204     -2395.6685
   1   2.0000     -88.038171     -2395.6404
   2   2.0000     -87.976439     -2393.9606
   3   2.0000     -87.975249     -2393.9282
   4   2.0000     -76.421516     -2079.5352
   5   2.0000     -76.417528     -2079.4266
   6   2.0000     -18.793127      -511.3870
   7   2.0000     -18.783771      -511.1324
   8   2.0000     -18.781401      -511.0679
   9   2.0000     -18.780396      -511.0406
  10   2.0000      -9.953722      -270.8545
  11   2.0000      -9.953703      -270.8540
  12   2.0000      -9.952779      -270.8289
  13   2.0000      -9.949681      -270.7446
  14   2.0000      -9.948234      -270.7052
  15   2.0000      -9.885465      -268.9972
  16   2.0000      -9.885345      -268.9939
  17   2.0000      -9.879601      -268.8376
  18   2.0000      -9.878558      -268.8092
  19   2.0000      -7.684218      -209.0982
  20   2.0000      -7.682845      -209.0609
  21   2.0000      -7.621725      -207.3977
  22   2.0000      -7.620167      -207.3553
  23   2.0000      -6.418771      -174.6636
  24   2.0000      -6.414719      -174.5534
  25   2.0000      -5.711942      -155.4299
  26   2.0000      -5.710604      -155.3934
  27   2.0000      -5.708809      -155.3446
  28   2.0000      -5.707321      -155.3041
  29   2.0000      -5.701246      -155.1388
  30   2.0000      -5.700047      -155.1062
  31   2.0000      -5.650792      -153.7659
  32   2.0000      -5.649151      -153.7212
  33   2.0000      -5.642502      -153.5403
  34   2.0000      -5.641495      -153.5129
  35   2.0000      -5.640982      -153.4989
  36   2.0000      -5.640075      -153.4742
  37   2.0000      -4.642020      -126.3158
  38   2.0000      -4.640394      -126.2715
  39   2.0000      -4.638768      -126.2273
  40   2.0000      -4.637287      -126.1870
  41   2.0000      -4.636712      -126.1713
  42   2.0000      -4.635033      -126.1257
  43   2.0000      -0.985401       -26.8141
  44   2.0000      -0.978369       -26.6228
  45   2.0000      -0.941470       -25.6187
  46   2.0000      -0.933301       -25.3964
  47   2.0000      -0.757859       -20.6224
  48   2.0000      -0.716040       -19.4844
  49   2.0000      -0.707907       -19.2631
  50   2.0000      -0.690297       -18.7839
  51   2.0000      -0.682873       -18.5819
  52   2.0000      -0.674736       -18.3605
  53   2.0000      -0.646557       -17.5937
  54   2.0000      -0.630277       -17.1507
  55   2.0000      -0.592591       -16.1252
  56   2.0000      -0.580866       -15.8062
  57   2.0000      -0.577989       -15.7279
  58   2.0000      -0.563716       -15.3395
  59   2.0000      -0.560953       -15.2643
  60   2.0000      -0.500421       -13.6172
  61   2.0000      -0.493667       -13.4334
  62   2.0000      -0.468482       -12.7480
  63   2.0000      -0.467366       -12.7177
  64   2.0000      -0.453119       -12.3300
  65   2.0000      -0.450000       -12.2451
  66   2.0000      -0.440573       -11.9886
  67   2.0000      -0.426227       -11.5982
  68   2.0000      -0.424324       -11.5464
  69   2.0000      -0.419918       -11.4266
  70   2.0000      -0.406549       -11.0628
  71   2.0000      -0.403376       -10.9764
  72   2.0000      -0.396470       -10.7885
  73   2.0000      -0.380366       -10.3503
  74   2.0000      -0.377745       -10.2790
  75   2.0000      -0.366090        -9.9618
  76   2.0000      -0.356099        -9.6899
  77   2.0000      -0.352535        -9.5930
  78   2.0000      -0.349315        -9.5053
  79   2.0000      -0.346637        -9.4325
  80   2.0000      -0.344992        -9.3877
  81   2.0000      -0.340388        -9.2624
  82   2.0000      -0.338623        -9.2144
  83   2.0000      -0.333326        -9.0703
  84   2.0000      -0.326467        -8.8836
  85   2.0000      -0.319351        -8.6900
  86   2.0000      -0.312405        -8.5010
  87   2.0000      -0.294231        -8.0064
  88   2.0000      -0.291936        -7.9440
  89   2.0000      -0.289631        -7.8813
  90   2.0000      -0.284520        -7.7422
  91   2.0000      -0.268498        -7.3062
  92   2.0000      -0.266582        -7.2541
  93   2.0000      -0.257264        -7.0005
  94   2.0000      -0.252025        -6.8580
  95   2.0000      -0.236709        -6.4412
  96   2.0000      -0.216952        -5.9036
  97   2.0000      -0.198875        -5.4117
  98   2.0000      -0.194823        -5.3014
  99   2.0000      -0.186061        -5.0630
 100   2.0000      -0.182221        -4.9585
 101   0.0000      -0.036199        -0.9850
 102   0.0000      -0.028512        -0.7758
 103   0.0000      -0.011671        -0.3176
 104   0.0000       0.003073         0.0836
 105   0.0000       0.025847         0.7033

MULLIKEN ATOMIC CHARGES
-----------------------
   0 C :   -0.285572
   1 C :   -0.014834
   2 O :   -0.346982
   3 P :    0.606308
   4 S :   -0.290387
   5 O :   -0.384901
   6 C :   -0.002710
   7 C :   -0.305314
   8 S :   -0.111679
   9 C :   -0.355227
  10 S :   -0.105426
  11 P :    0.613196
  12 S :   -0.311252
  13 O :   -0.352133
  14 C :    0.010550
  15 C :   -0.320840
  16 O :   -0.385760
  17 C :    0.002290
  18 C :   -0.328280
  19 H :    0.105584
  20 H :    0.137401
  21 H :    0.119518
  22 H :    0.104939
  23 H :    0.106876
  24 H :    0.101510
  25 H :    0.103228
  26 H :    0.124233
  27 H :    0.117074
  28 H :    0.106228
  29 H :    0.198388
  30 H :    0.178724
  31 H :    0.113303
  32 H :    0.107701
  33 H :    0.124480
  34 H :    0.122004
  35 H :    0.111802
  36 H :    0.103788
  37 H :    0.113352
  38 H :    0.134747
  39 H :    0.118219
  40 H :    0.115855
Sum of atomic charges:   -0.0000000

LOEWDIN ATOMIC CHARGES
----------------------
   0 C :   -0.350797
   1 C :   -0.114153
   2 O :   -0.225243
   3 P :    0.567130
   4 S :   -0.287029
   5 O :   -0.253086
   6 C :   -0.120063
   7 C :   -0.367812
   8 S :    0.066259
   9 C :   -0.486977
  10 S :    0.075659
  11 P :    0.569670
  12 S :   -0.306613
  13 O :   -0.229740
  14 C :   -0.106128
  15 C :   -0.369496
  16 O :   -0.248234
  17 C :   -0.117636
  18 C :   -0.373606
  19 H :    0.127975
  20 H :    0.129018
  21 H :    0.129308
  22 H :    0.112625
  23 H :    0.106037
  24 H :    0.101327
  25 H :    0.118157
  26 H :    0.130132
  27 H :    0.117340
  28 H :    0.127160
  29 H :    0.119442
  30 H :    0.134811
  31 H :    0.124106
  32 H :    0.114362
  33 H :    0.118539
  34 H :    0.125895
  35 H :    0.130431
  36 H :    0.118019
  37 H :    0.113180
  38 H :    0.123985
  39 H :    0.123165
  40 H :    0.132883

  Mayer bond orders larger than 0.100000
B(  0-C ,  1-C ) :   1.1661 B(  0-C , 19-H ) :   0.9405 B(  0-C , 20-H ) :   0.9438
B(  0-C , 21-H ) :   0.9494 B(  1-C ,  2-O ) :   0.8903 B(  1-C , 22-H ) :   0.9289
B(  1-C , 23-H ) :   0.9161 B(  2-O ,  3-P ) :   1.1468 B(  3-P ,  4-S ) :   1.6434
B(  3-P ,  5-O ) :   1.0654 B(  3-P ,  8-S ) :   0.9407 B(  4-S ,  8-S ) :   0.1169
B(  4-S , 29-H ) :   0.1246 B(  5-O ,  6-C ) :   0.9268 B(  6-C ,  7-C ) :   1.1640
B(  6-C , 24-H ) :   0.9174 B(  6-C , 25-H ) :   0.9338 B(  7-C , 26-H ) :   0.9448
B(  7-C , 27-H ) :   0.9355 B(  7-C , 28-H ) :   0.9363 B(  8-S ,  9-C ) :   0.9980
B(  9-C , 10-S ) :   1.0019 B(  9-C , 29-H ) :   0.8373 B(  9-C , 30-H ) :   0.9115
B( 10-S , 11-P ) :   0.9420 B( 10-S , 12-S ) :   0.1116 B( 11-P , 12-S ) :   1.6659
B( 11-P , 13-O ) :   1.1323 B( 11-P , 16-O ) :   1.0689 B( 13-O , 14-C ) :   0.8987
B( 14-C , 15-C ) :   1.1699 B( 14-C , 31-H ) :   0.9333 B( 14-C , 32-H ) :   0.9280
B( 15-C , 33-H ) :   0.9378 B( 15-C , 34-H ) :   0.9450 B( 15-C , 35-H ) :   0.9358
B( 16-O , 17-C ) :   0.9044 B( 17-C , 18-C ) :   1.1657 B( 17-C , 36-H ) :   0.9336
B( 17-C , 37-H ) :   0.9155 B( 18-C , 38-H ) :   0.9308 B( 18-C , 39-H ) :   0.9434
B( 18-C , 40-H ) :   0.9371

Dispersion correction           -0.067155735
FINAL SINGLE POINT ENERGY     -2929.509783369054

DIPOLE MOMENT
-------------

Method             : SCF
Type of density    : Electron Density
Multiplicity       :   1
Irrep              :   0
Energy             : -2929.6277320139247422 Eh
Relativity type    :
Basis              : AO
                                X                 Y                 Z
Electronic contribution:      2.916207478       3.376892093      -1.489669465
Nuclear contribution   :     -3.500694550      -4.385047196       1.945984921
                        -----------------------------------------
Total Dipole Moment    :     -0.584487072      -1.008155103       0.456315457
                        -----------------------------------------
Magnitude (a.u.)       :      1.251489371
Magnitude (Debye)      :      3.181033180

Rotational constants in cm-1:             0.011639             0.005657             0.004849
Rotational constants in MHz :           348.921161           169.594209           145.359902

                             ****ORCA TERMINATED NORMALLY****
TOTAL RUN TIME: 0 days 0 hours 0 minutes 21 seconds 539 msec
