                         Program Version 6.0.0  -   RELEASE  -
|  1> ! pbe def2-sv(p) def2/J RI DEFGRID1 loosescf d4 GCP(DFT/SV(P)) printgap
|  2> %output
|  3>     printlevel normal
|  4> end
|  5> * xyz 0 1
|  6> C 2.3104656972 2.9846712228 -1.1856124687
|  7> C 1.6626623011 1.6432569442 -1.4588538012
|  8> O 1.3954511309 0.953275242 -0.2148855044
|  9> P 2.3477994688 -0.2286147346 0.2521347773
| 10> S 4.2756598296 0.0796985455 0.114588776
| 11> O 1.8258686435 -1.4302934986 -0.6641863972
| 12> C 2.613323224 -2.6100692611 -0.8867997953
| 13> C 2.6700129052 -3.4901014423 0.3460251603
| 14> S 1.5632616278 -0.5706148568 2.1735758269
| 15> C -0.1680904242 -0.908366167 1.7431520848
| 16> S -1.1803116621 0.60835404 1.6791526192
| 17> P -2.2286892383 0.1627098323 -0.0928980936
| 18> S -1.2427745112 -0.5414089833 -1.6431658817
| 19> O -3.092164121 1.4640623208 -0.3836443262
| 20> C -2.6015391952 2.5571276378 -1.1771270618
| 21> C -1.6322925748 3.4239121603 -0.398702456
| 22> O -3.2970916696 -0.8376342085 0.5142221603
| 23> C -4.0856321009 -1.72416514 -0.3065838409
| 24> C -5.102931191 -0.9702736677 -1.1367318404
| 25> H 2.4322499968 3.518661537 -2.1224161515
| 26> H 1.6933507508 3.5717004081 -0.5110445337
| 27> H 3.2871906893 2.8379979049 -0.7291106292
| 28> H 2.303331791 1.0163820503 -2.0854216687
| 29> H 0.6896096389 1.747181712 -1.9432602405
| 30> H 2.1143249359 -3.106617687 -1.7204699499
| 31> H 3.6209469925 -2.3016326789 -1.1842626866
| 32> H 1.6676302884 -3.7549199711 0.6729245389
| 33> H 3.2218239326 -4.395265206 0.1139194284
| 34> H 3.1780957818 -2.9629532913 1.1532749793
| 35> H -0.5519959482 -1.5510062679 2.5305224349
| 36> H -0.2049051683 -1.3941994013 0.7669236879
| 37> H -2.1284032861 2.1488153619 -2.0771969559
| 38> H -3.4999364992 3.1111487805 -1.4535903872
| 39> H -0.7455540429 2.8508737901 -0.1325468338
| 40> H -1.3386096106 4.272905671 -1.008034903
| 41> H -2.0992445279 3.7793758041 0.5160696456
| 42> H -3.4084332999 -2.2942624939 -0.9509966998
| 43> H -4.5632924144 -2.3893666037 0.4138073368
| 44> H -5.7486935923 -1.679000438 -1.6457973687
| 45> H -5.7024870273 -0.3255169198 -0.4997504139
| 46> H -4.5949782156 -0.3573120402 -1.8798230271
| 47> *
| 48>
| 49>                          ****END OF INPUT****

CARTESIAN COORDINATES (ANGSTROEM)
---------------------------------
  C      2.310466    2.984671   -1.185612
  C      1.662662    1.643257   -1.458854
  O      1.395451    0.953275   -0.214886
  P      2.347799   -0.228615    0.252135
  S      4.275660    0.079699    0.114589
  O      1.825869   -1.430293   -0.664186
  C      2.613323   -2.610069   -0.886800
  C      2.670013   -3.490101    0.346025
  S      1.563262   -0.570615    2.173576
  C     -0.168090   -0.908366    1.743152
  S     -1.180312    0.608354    1.679153
  P     -2.228689    0.162710   -0.092898
  S     -1.242775   -0.541409   -1.643166
  O     -3.092164    1.464062   -0.383644
  C     -2.601539    2.557128   -1.177127
  C     -1.632293    3.423912   -0.398702
  O     -3.297092   -0.837634    0.514222
  C     -4.085632   -1.724165   -0.306584
  C     -5.102931   -0.970274   -1.136732
  H      2.432250    3.518662   -2.122416
  H      1.693351    3.571700   -0.511045
  H      3.287191    2.837998   -0.729111
  H      2.303332    1.016382   -2.085422
  H      0.689610    1.747182   -1.943260
  H      2.114325   -3.106618   -1.720470
  H      3.620947   -2.301633   -1.184263
  H      1.667630   -3.754920    0.672925
  H      3.221824   -4.395265    0.113919
  H      3.178096   -2.962953    1.153275
  H     -0.551996   -1.551006    2.530522
  H     -0.204905   -1.394199    0.766924
  H     -2.128403    2.148815   -2.077197
  H     -3.499936    3.111149   -1.453590
  H     -0.745554    2.850874   -0.132547
  H     -1.338610    4.272906   -1.008035
  H     -2.099245    3.779376    0.516070
  H     -3.408433   -2.294262   -0.950997
  H     -4.563292   -2.389367    0.413807
  H     -5.748694   -1.679000   -1.645797
  H     -5.702487   -0.325517   -0.499750
  H     -4.594978   -0.357312   -1.879823

 Total Charge           Charge          ....    0
 Multiplicity           Mult            ....    1
 Number of Electrons    NEL             ....  202
 Basis Dimension        Dim             ....  334

ORBITAL ENERGIES
----------------

  NO   OCC          E(Eh)            E(eV)
   0   2.0000     -88.045731     -2395.8461
   1   2.0000     -88.042425     -2395.7562
   2   2.0000     -87.992270     -2394.3914
   3   2.0000     -87.985480     -2394.2066
   4   2.0000     -76.429461     -2079.7514
   5   2.0000     -76.423087     -2079.5779
   6   2.0000     -18.800124      -511.5774
   7   2.0000     -18.792837      -511.3791
   8   2.0000     -18.788162      -511.2519
   9   2.0000     -18.784737      -511.1587
  10   2.0000      -9.959210      -271.0039
  11   2.0000      -9.958509      -270.9848
  12   2.0000      -9.954311      -270.8706
  13   2.0000      -9.947421      -270.6831
  14   2.0000      -9.945678      -270.6357
  15   2.0000      -9.889383      -269.1038
  16   2.0000      -9.887274      -269.0464
  17   2.0000      -9.882661      -268.9209
  18   2.0000      -9.877366      -268.7768
  19   2.0000      -7.691158      -209.2870
  20   2.0000      -7.687822      -209.1963
  21   2.0000      -7.637027      -207.8141
  22   2.0000      -7.630666      -207.6410
  23   2.0000      -6.427279      -174.8951
  24   2.0000      -6.421036      -174.7253
  25   2.0000      -5.719435      -155.6337
  26   2.0000      -5.715776      -155.5342
  27   2.0000      -5.715387      -155.5236
  28   2.0000      -5.712578      -155.4472
  29   2.0000      -5.707946      -155.3211
  30   2.0000      -5.704404      -155.2247
  31   2.0000      -5.665769      -154.1734
  32   2.0000      -5.659630      -154.0064
  33   2.0000      -5.657751      -153.9552
  34   2.0000      -5.657278      -153.9424
  35   2.0000      -5.651412      -153.7827
  36   2.0000      -5.650645      -153.7619
  37   2.0000      -4.649836      -126.5285
  38   2.0000      -4.648972      -126.5049
  39   2.0000      -4.647771      -126.4723
  40   2.0000      -4.643428      -126.3541
  41   2.0000      -4.642997      -126.3424
  42   2.0000      -4.641472      -126.3009
  43   2.0000      -0.991479       -26.9795
  44   2.0000      -0.981479       -26.7074
  45   2.0000      -0.951156       -25.8823
  46   2.0000      -0.939697       -25.5704
  47   2.0000      -0.764418       -20.8009
  48   2.0000      -0.724146       -19.7050
  49   2.0000      -0.707155       -19.2427
  50   2.0000      -0.692212       -18.8360
  51   2.0000      -0.682511       -18.5721
  52   2.0000      -0.675635       -18.3850
  53   2.0000      -0.654732       -17.8162
  54   2.0000      -0.639735       -17.4081
  55   2.0000      -0.605182       -16.4678
  56   2.0000      -0.588676       -16.0187
  57   2.0000      -0.576793       -15.6953
  58   2.0000      -0.570692       -15.5293
  59   2.0000      -0.558990       -15.2109
  60   2.0000      -0.499184       -13.5835
  61   2.0000      -0.497271       -13.5314
  62   2.0000      -0.479801       -13.0561
  63   2.0000      -0.465813       -12.6754
  64   2.0000      -0.459156       -12.4943
  65   2.0000      -0.447972       -12.1900
  66   2.0000      -0.443663       -12.0727
  67   2.0000      -0.435812       -11.8590
  68   2.0000      -0.429139       -11.6775
  69   2.0000      -0.417165       -11.3516
  70   2.0000      -0.411403       -11.1948
  71   2.0000      -0.397463       -10.8155
  72   2.0000      -0.394820       -10.7436
  73   2.0000      -0.391031       -10.6405
  74   2.0000      -0.385285       -10.4841
  75   2.0000      -0.375839       -10.2271
  76   2.0000      -0.368734       -10.0338
  77   2.0000      -0.360750        -9.8165
  78   2.0000      -0.354070        -9.6347
  79   2.0000      -0.350847        -9.5470
  80   2.0000      -0.347830        -9.4649
  81   2.0000      -0.345692        -9.4068
  82   2.0000      -0.340707        -9.2711
  83   2.0000      -0.337323        -9.1790
  84   2.0000      -0.329056        -8.9541
  85   2.0000      -0.319943        -8.7061
  86   2.0000      -0.309365        -8.4182
  87   2.0000      -0.299231        -8.1425
  88   2.0000      -0.291054        -7.9200
  89   2.0000      -0.288981        -7.8636
  90   2.0000      -0.285462        -7.7678
  91   2.0000      -0.277131        -7.5411
  92   2.0000      -0.270965        -7.3733
  93   2.0000      -0.269674        -7.3382
  94   2.0000      -0.262159        -7.1337
  95   2.0000      -0.232285        -6.3208
  96   2.0000      -0.220876        -6.0103
  97   2.0000      -0.211142        -5.7455
  98   2.0000      -0.208685        -5.6786
  99   2.0000      -0.201832        -5.4921
 100   2.0000      -0.200783        -5.4636
 101   0.0000      -0.040631        -1.1056
 102   0.0000      -0.029194        -0.7944
 103   0.0000      -0.021897        -0.5959
 104   0.0000       0.005723         0.1557
 105   0.0000       0.017701         0.4817

MULLIKEN ATOMIC CHARGES
-----------------------
   0 C :   -0.286222
   1 C :   -0.011782
   2 O :   -0.373397
   3 P :    0.607661
   4 S :   -0.320471
   5 O :   -0.369417
   6 C :   -0.005908
   7 C :   -0.314697
   8 S :   -0.065213
   9 C :   -0.370438
  10 S :   -0.058366
  11 P :    0.600252
  12 S :   -0.320291
  13 O :   -0.370375
  14 C :   -0.012616
  15 C :   -0.354406
  16 O :   -0.368760
  17 C :   -0.004471
  18 C :   -0.306685
  19 H :    0.104617
  20 H :    0.113435
  21 H :    0.123467
  22 H :    0.103867
  23 H :    0.108808
  24 H :    0.105612
  25 H :    0.111160
  26 H :    0.113224
  27 H :    0.112512
  28 H :    0.125855
  29 H :    0.186922
  30 H :    0.202695
  31 H :    0.112522
  32 H :    0.107846
  33 H :    0.170815
  34 H :    0.115502
  35 H :    0.120565
  36 H :    0.108395
  37 H :    0.105408
  38 H :    0.112541
  39 H :    0.118963
  40 H :    0.120873
Sum of atomic charges:    0.0000000

LOEWDIN ATOMIC CHARGES
----------------------
   0 C :   -0.359876
   1 C :   -0.120018
   2 O :   -0.244134
   3 P :    0.568923
   4 S :   -0.318841
   5 O :   -0.240457
   6 C :   -0.123232
   7 C :   -0.367096
   8 S :    0.099352
   9 C :   -0.477466
  10 S :    0.095236
  11 P :    0.570147
  12 S :   -0.305076
  13 O :   -0.239892
  14 C :   -0.119271
  15 C :   -0.372062
  16 O :   -0.245725
  17 C :   -0.118582
  18 C :   -0.364074
  19 H :    0.127532
  20 H :    0.123406
  21 H :    0.126292
  22 H :    0.109645
  23 H :    0.108054
  24 H :    0.118739
  25 H :    0.108406
  26 H :    0.122439
  27 H :    0.130756
  28 H :    0.121380
  29 H :    0.137533
  30 H :    0.125861
  31 H :    0.107199
  32 H :    0.119860
  33 H :    0.126426
  34 H :    0.131640
  35 H :    0.128314
  36 H :    0.109072
  37 H :    0.118921
  38 H :    0.130549
  39 H :    0.127504
  40 H :    0.122613

  Mayer bond orders larger than 0.100000
B(  0-C ,  1-C ) :   1.1713 B(  0-C , 19-H ) :   0.9408 B(  0-C , 20-H ) :   0.9471
B(  0-C , 21-H ) :   0.9340 B(  1-C ,  2-O ) :   0.8740 B(  1-C , 22-H ) :   0.9118
B(  1-C , 23-H ) :   0.9158 B(  2-O ,  3-P ) :   1.1233 B(  3-P ,  4-S ) :   1.6357
B(  3-P ,  5-O ) :   1.0716 B(  3-P ,  8-S ) :   0.9778 B(  5-O ,  6-C ) :   0.9127
B(  6-C ,  7-C ) :   1.1619 B(  6-C , 24-H ) :   0.9321 B(  6-C , 25-H ) :   0.9109
B(  7-C , 26-H ) :   0.9477 B(  7-C , 27-H ) :   0.9396 B(  7-C , 28-H ) :   0.9358
B(  8-S ,  9-C ) :   0.9956 B(  9-C , 10-S ) :   0.9781 B(  9-C , 29-H ) :   0.9091
B(  9-C , 30-H ) :   0.8551 B( 10-S , 11-P ) :   0.9835 B( 10-S , 12-S ) :   0.1160
B( 11-P , 12-S ) :   1.5917 B( 11-P , 13-O ) :   1.1067 B( 11-P , 16-O ) :   1.1172
B( 13-O , 14-C ) :   0.9067 B( 14-C , 15-C ) :   1.1642 B( 14-C , 31-H ) :   0.9117
B( 14-C , 32-H ) :   0.9321 B( 15-C , 33-H ) :   0.9169 B( 15-C , 34-H ) :   0.9383
B( 15-C , 35-H ) :   0.9429 B( 16-O , 17-C ) :   0.9099 B( 17-C , 18-C ) :   1.1653
B( 17-C , 36-H ) :   0.9149 B( 17-C , 37-H ) :   0.9346 B( 18-C , 38-H ) :   0.9388
B( 18-C , 39-H ) :   0.9462 B( 18-C , 40-H ) :   0.9387

Dispersion correction           -0.066166359
FINAL SINGLE POINT ENERGY     -2929.520477179823

DIPOLE MOMENT
-------------

Method             : SCF
Type of density    : Electron Density
Multiplicity       :   1
Irrep              :   0
Energy             : -2929.6407811757312629 Eh
Relativity type    :
Basis              : AO
                                X                 Y                 Z
Electronic contribution:      8.472722902      -2.525495894      12.539860735
Nuclear contribution   :     -9.988549329       2.271499170     -13.145159698
                        -----------------------------------------
Total Dipole Moment    :     -1.515826427      -0.253996724      -0.605298963
                        -----------------------------------------
Magnitude (a.u.)       :      1.651856812
Magnitude (Debye)      :      4.198686342

Rotational constants in cm-1:             0.011924             0.005422             0.004712
Rotational constants in MHz :           357.486297           162.546090           141.271346

                             ****ORCA TERMINATED NORMALLY****
TOTAL RUN TIME: 0 days 0 hours 0 minutes 21 seconds 565 msec
