                         Program Version 6.0.0  -   RELEASE  -
|  1> ! pbe def2-sv(p) def2/J RI DEFGRID1 loosescf d4 GCP(DFT/SV(P)) printgap
|  2> %output
|  3>     printlevel normal
|  4> end
|  5> * xyz 0 1
|  6> C -0.7726225108 -1.2235819481 -0.1918395629
|  7> C 0.766232495 -1.2272101974 -0.2106479159
|  8> C 1.3709781604 0.0692716791 0.3537883628
|  9> C 0.6568015759 1.2561346105 -0.2100567436
| 10> C -0.6670219402 1.2559534629 -0.1815282566
| 11> C -1.3554416525 0.0664438781 0.4082184831
| 12> H -1.1472564548 -2.0764182568 0.375487795
| 13> H -1.1467091845 -1.32035362 -1.2123699631
| 14> H 1.1508067487 -2.0717747607 0.36237603
| 15> H 1.1142887471 -1.3444196133 -1.2381063762
| 16> H 1.2518584128 0.0667689181 1.4417163814
| 17> H 2.4377865513 0.1048906308 0.1332950069
| 18> H 1.2316024013 2.0678950067 -0.6284566224
| 19> H -1.2596293788 2.0671734241 -0.5754620726
| 20> H -1.189170081 0.0570586194 1.489850751
| 21> H -2.4307813795 0.1015685291 0.2337667778
| 22> *
| 23>
| 24>                          ****END OF INPUT****

CARTESIAN COORDINATES (ANGSTROEM)
---------------------------------
  C     -0.772623   -1.223582   -0.191840
  C      0.766232   -1.227210   -0.210648
  C      1.370978    0.069272    0.353788
  C      0.656802    1.256135   -0.210057
  C     -0.667022    1.255953   -0.181528
  C     -1.355442    0.066444    0.408218
  H     -1.147256   -2.076418    0.375488
  H     -1.146709   -1.320354   -1.212370
  H      1.150807   -2.071775    0.362376
  H      1.114289   -1.344420   -1.238106
  H      1.251858    0.066769    1.441716
  H      2.437787    0.104891    0.133295
  H      1.231602    2.067895   -0.628457
  H     -1.259629    2.067173   -0.575462
  H     -1.189170    0.057059    1.489851
  H     -2.430781    0.101569    0.233767

 Total Charge           Charge          ....    0
 Multiplicity           Mult            ....    1
 Number of Electrons    NEL             ....   46
 Basis Dimension        Dim             ....  104

ORBITAL ENERGIES
----------------

  NO   OCC          E(Eh)            E(eV)
   0   2.0000      -9.883238      -268.9366
   1   2.0000      -9.883170      -268.9347
   2   2.0000      -9.881255      -268.8826
   3   2.0000      -9.881155      -268.8799
   4   2.0000      -9.877075      -268.7689
   5   2.0000      -9.876479      -268.7527
   6   2.0000      -0.753386       -20.5007
   7   2.0000      -0.660035       -17.9605
   8   2.0000      -0.659154       -17.9365
   9   2.0000      -0.550870       -14.9899
  10   2.0000      -0.524591       -14.2748
  11   2.0000      -0.445969       -12.1354
  12   2.0000      -0.441811       -12.0223
  13   2.0000      -0.425350       -11.5744
  14   2.0000      -0.360465        -9.8087
  15   2.0000      -0.351710        -9.5705
  16   2.0000      -0.351110        -9.5542
  17   2.0000      -0.332162        -9.0386
  18   2.0000      -0.332001        -9.0342
  19   2.0000      -0.282371        -7.6837
  20   2.0000      -0.276405        -7.5214
  21   2.0000      -0.258475        -7.0335
  22   2.0000      -0.210709        -5.7337
  23   0.0000      -0.009638        -0.2623
  24   0.0000       0.034942         0.9508
  25   0.0000       0.058632         1.5955
  26   0.0000       0.075963         2.0671
  27   0.0000       0.083117         2.2617

MULLIKEN ATOMIC CHARGES
-----------------------
   0 C :   -0.156408
   1 C :   -0.155875
   2 C :   -0.092242
   3 C :   -0.146569
   4 C :   -0.147153
   5 C :   -0.091733
   6 H :    0.079697
   7 H :    0.081827
   8 H :    0.079486
   9 H :    0.081997
  10 H :    0.089536
  11 H :    0.084729
  12 H :    0.059296
  13 H :    0.059309
  14 H :    0.089457
  15 H :    0.084647
Sum of atomic charges:    0.0000000

LOEWDIN ATOMIC CHARGES
----------------------
   0 C :   -0.224397
   1 C :   -0.224545
   2 C :   -0.225444
   3 C :   -0.148798
   4 C :   -0.148716
   5 C :   -0.225352
   6 H :    0.116533
   7 H :    0.118878
   8 H :    0.116564
   9 H :    0.118970
  10 H :    0.125618
  11 H :    0.120506
  12 H :    0.117148
  13 H :    0.117175
  14 H :    0.125418
  15 H :    0.120442

  Mayer bond orders larger than 0.100000
B(  0-C ,  1-C ) :   1.1311 B(  0-C ,  5-C ) :   1.1603 B(  0-C ,  6-H ) :   0.9185
B(  0-C ,  7-H ) :   0.9228 B(  1-C ,  2-C ) :   1.1595 B(  1-C ,  8-H ) :   0.9184
B(  1-C ,  9-H ) :   0.9234 B(  2-C ,  3-C ) :   1.0972 B(  2-C , 10-H ) :   0.8831
B(  2-C , 11-H ) :   0.9198 B(  3-C ,  4-C ) :   1.9094 B(  3-C , 12-H ) :   0.9593
B(  4-C ,  5-C ) :   1.0960 B(  4-C , 13-H ) :   0.9593 B(  5-C , 14-H ) :   0.8832
B(  5-C , 15-H ) :   0.9197

Dispersion correction           -0.013474159
FINAL SINGLE POINT ENERGY      -234.062785133546

DIPOLE MOMENT
-------------

Method             : SCF
Type of density    : Electron Density
Multiplicity       :   1
Irrep              :   0
Energy             :  -234.1140563799385461 Eh
Relativity type    :
Basis              : AO
                                X                 Y                 Z
Electronic contribution:     -0.010833417       2.090947598      -0.319679725
Nuclear contribution   :      0.012005210      -2.202463446       0.358473440
                        -----------------------------------------
Total Dipole Moment    :      0.001171794      -0.111515849       0.038793714
                        -----------------------------------------
Magnitude (a.u.)       :      0.118076712
Magnitude (Debye)      :      0.300127151

Rotational constants in cm-1:             0.158212             0.154944             0.089805
Rotational constants in MHz :          4743.072415          4645.101699          2692.287187

                             ****ORCA TERMINATED NORMALLY****
TOTAL RUN TIME: 0 days 0 hours 0 minutes 22 seconds 160 msec
