                         Program Version 6.0.0  -   RELEASE  -
|  1> ! pbe def2-sv(p) def2/J RI DEFGRID1 loosescf d4 GCP(DFT/SV(P)) printgap
|  2> %output
|  3>     printlevel normal
|  4> end
|  5> * xyz 0 1
|  6> C 3.6679167701 -1.2222531424 2.029575477
|  7> C 2.1558247014 -1.1369511659 2.0238293225
|  8> O 1.6523503155 -0.0270391195 1.2554172504
|  9> P 2.0998682694 0.3230169742 -0.2269777264
| 10> S 3.8094471641 1.25700121 -0.4296732233
| 11> O 0.8256245231 1.2051380453 -0.5985541812
| 12> C 0.9442279765 2.2588972213 -1.5740112741
| 13> C 1.0405156738 1.7207002302 -2.9872865555
| 14> S 1.8901676132 -1.4764554028 -1.3341448161
| 15> C 0.0793745131 -1.656912765 -1.3880880393
| 16> S -0.7191305231 -1.8848863225 0.2313416582
| 17> P -1.8603997106 -0.1190997004 0.3589512199
| 18> S -2.2484550689 0.8568961971 -1.300338466
| 19> O -1.1010662009 0.6479733337 1.5170545243
| 20> C -1.272486675 2.0536924983 1.7628386406
| 21> C -2.6524797373 2.376190714 2.2977871271
| 22> O -3.1661684841 -0.5942659077 1.1410377173
| 23> C -4.3437001436 -1.0760648302 0.4743313215
| 24> C -4.1166402394 -2.4052177924 -0.2173345117
| 25> H 4.1017808308 -0.2825334151 2.3640344965
| 26> H 3.977759536 -2.020034278 2.6970468025
| 27> H 4.037619193 -1.4344882936 1.0263920945
| 28> H 1.7605282803 -0.9519886699 3.0243387172
| 29> H 1.7189818012 -2.0589029378 1.6263738323
| 30> H 0.0397551816 2.8550057842 -1.4419550927
| 31> H 1.8267536031 2.8575456727 -1.3281375642
| 32> H 1.9163474142 1.079383376 -3.0825805617
| 33> H 0.1460386176 1.1568131534 -3.2417753287
| 34> H 1.1378766348 2.5536427699 -3.676075982
| 35> H -0.0813324724 -2.5631838868 -1.9665807483
| 36> H -0.3722434339 -0.7915263469 -1.8767144074
| 37> H -0.4892330905 2.2899437463 2.4850099545
| 38> H -1.080741173 2.5945379201 0.8307324614
| 39> H -2.8696638045 1.7622215929 3.1679157667
| 40> H -2.6937613147 3.4251851443 2.5744254372
| 41> H -3.4037565807 2.1820351913 1.5332289262
| 42> H -5.0802408999 -1.160579365 1.2745550352
| 43> H -4.6658258273 -0.3190663959 -0.2483284886
| 44> H -5.065907004 -2.7840658204 -0.5824559099
| 45> H -3.440891026 -2.277109788 -1.0617008141
| 46> H -3.6831399493 -3.122644566 0.4748245809
| 47> *
| 48>
| 49>                          ****END OF INPUT****

CARTESIAN COORDINATES (ANGSTROEM)
---------------------------------
  C      3.667917   -1.222253    2.029575
  C      2.155825   -1.136951    2.023829
  O      1.652350   -0.027039    1.255417
  P      2.099868    0.323017   -0.226978
  S      3.809447    1.257001   -0.429673
  O      0.825625    1.205138   -0.598554
  C      0.944228    2.258897   -1.574011
  C      1.040516    1.720700   -2.987287
  S      1.890168   -1.476455   -1.334145
  C      0.079375   -1.656913   -1.388088
  S     -0.719131   -1.884886    0.231342
  P     -1.860400   -0.119100    0.358951
  S     -2.248455    0.856896   -1.300338
  O     -1.101066    0.647973    1.517055
  C     -1.272487    2.053692    1.762839
  C     -2.652480    2.376191    2.297787
  O     -3.166168   -0.594266    1.141038
  C     -4.343700   -1.076065    0.474331
  C     -4.116640   -2.405218   -0.217335
  H      4.101781   -0.282533    2.364034
  H      3.977760   -2.020034    2.697047
  H      4.037619   -1.434488    1.026392
  H      1.760528   -0.951989    3.024339
  H      1.718982   -2.058903    1.626374
  H      0.039755    2.855006   -1.441955
  H      1.826754    2.857546   -1.328138
  H      1.916347    1.079383   -3.082581
  H      0.146039    1.156813   -3.241775
  H      1.137877    2.553643   -3.676076
  H     -0.081332   -2.563184   -1.966581
  H     -0.372243   -0.791526   -1.876714
  H     -0.489233    2.289944    2.485010
  H     -1.080741    2.594538    0.830732
  H     -2.869664    1.762222    3.167916
  H     -2.693761    3.425185    2.574425
  H     -3.403757    2.182035    1.533229
  H     -5.080241   -1.160579    1.274555
  H     -4.665826   -0.319066   -0.248328
  H     -5.065907   -2.784066   -0.582456
  H     -3.440891   -2.277110   -1.061701
  H     -3.683140   -3.122645    0.474825

 Total Charge           Charge          ....    0
 Multiplicity           Mult            ....    1
 Number of Electrons    NEL             ....  202
 Basis Dimension        Dim             ....  334

ORBITAL ENERGIES
----------------

  NO   OCC          E(Eh)            E(eV)
   0   2.0000     -88.050109     -2395.9653
   1   2.0000     -88.045796     -2395.8479
   2   2.0000     -87.996573     -2394.5085
   3   2.0000     -87.982645     -2394.1295
   4   2.0000     -76.431341     -2079.8025
   5   2.0000     -76.423837     -2079.5983
   6   2.0000     -18.796352      -511.4747
   7   2.0000     -18.788948      -511.2733
   8   2.0000     -18.788450      -511.2597
   9   2.0000     -18.784284      -511.1463
  10   2.0000      -9.961995      -271.0797
  11   2.0000      -9.955211      -270.8951
  12   2.0000      -9.951085      -270.7828
  13   2.0000      -9.948776      -270.7200
  14   2.0000      -9.942907      -270.5603
  15   2.0000      -9.887495      -269.0524
  16   2.0000      -9.884795      -268.9790
  17   2.0000      -9.878653      -268.8118
  18   2.0000      -9.876236      -268.7461
  19   2.0000      -7.694991      -209.3914
  20   2.0000      -7.690683      -209.2741
  21   2.0000      -7.641275      -207.9297
  22   2.0000      -7.627894      -207.5655
  23   2.0000      -6.428800      -174.9365
  24   2.0000      -6.421104      -174.7271
  25   2.0000      -5.722844      -155.7265
  26   2.0000      -5.719614      -155.6386
  27   2.0000      -5.718880      -155.6186
  28   2.0000      -5.714741      -155.5060
  29   2.0000      -5.711793      -155.4258
  30   2.0000      -5.707845      -155.3184
  31   2.0000      -5.670042      -154.2897
  32   2.0000      -5.662243      -154.0775
  33   2.0000      -5.661224      -154.0498
  34   2.0000      -5.656957      -153.9336
  35   2.0000      -5.648502      -153.7036
  36   2.0000      -5.647914      -153.6876
  37   2.0000      -4.650994      -126.5600
  38   2.0000      -4.650418      -126.5443
  39   2.0000      -4.649772      -126.5267
  40   2.0000      -4.643605      -126.3589
  41   2.0000      -4.643349      -126.3519
  42   2.0000      -4.641222      -126.2941
  43   2.0000      -0.989113       -26.9151
  44   2.0000      -0.982374       -26.7318
  45   2.0000      -0.946197       -25.7473
  46   2.0000      -0.939804       -25.5734
  47   2.0000      -0.764840       -20.8124
  48   2.0000      -0.721370       -19.6295
  49   2.0000      -0.707162       -19.2429
  50   2.0000      -0.689330       -18.7576
  51   2.0000      -0.680002       -18.5038
  52   2.0000      -0.676897       -18.4193
  53   2.0000      -0.656917       -17.8756
  54   2.0000      -0.641603       -17.4589
  55   2.0000      -0.605440       -16.4749
  56   2.0000      -0.590669       -16.0729
  57   2.0000      -0.574200       -15.6248
  58   2.0000      -0.569801       -15.5051
  59   2.0000      -0.562812       -15.3149
  60   2.0000      -0.496915       -13.5217
  61   2.0000      -0.488634       -13.2964
  62   2.0000      -0.475344       -12.9348
  63   2.0000      -0.460556       -12.5324
  64   2.0000      -0.455233       -12.3875
  65   2.0000      -0.449432       -12.2297
  66   2.0000      -0.442195       -12.0327
  67   2.0000      -0.434451       -11.8220
  68   2.0000      -0.424885       -11.5617
  69   2.0000      -0.419497       -11.4151
  70   2.0000      -0.414290       -11.2734
  71   2.0000      -0.399782       -10.8786
  72   2.0000      -0.393554       -10.7091
  73   2.0000      -0.390473       -10.6253
  74   2.0000      -0.387312       -10.5393
  75   2.0000      -0.383197       -10.4273
  76   2.0000      -0.362414        -9.8618
  77   2.0000      -0.356031        -9.6881
  78   2.0000      -0.350969        -9.5503
  79   2.0000      -0.349214        -9.5026
  80   2.0000      -0.344589        -9.3767
  81   2.0000      -0.343618        -9.3503
  82   2.0000      -0.340891        -9.2761
  83   2.0000      -0.336843        -9.1660
  84   2.0000      -0.329828        -8.9751
  85   2.0000      -0.317178        -8.6309
  86   2.0000      -0.313347        -8.5266
  87   2.0000      -0.300154        -8.1676
  88   2.0000      -0.295905        -8.0520
  89   2.0000      -0.289672        -7.8824
  90   2.0000      -0.282979        -7.7003
  91   2.0000      -0.271989        -7.4012
  92   2.0000      -0.266723        -7.2579
  93   2.0000      -0.264761        -7.2045
  94   2.0000      -0.254102        -6.9145
  95   2.0000      -0.236807        -6.4438
  96   2.0000      -0.225565        -6.1379
  97   2.0000      -0.213674        -5.8144
  98   2.0000      -0.212869        -5.7925
  99   2.0000      -0.201556        -5.4846
 100   2.0000      -0.196077        -5.3355
 101   0.0000      -0.044244        -1.2039
 102   0.0000      -0.031568        -0.8590
 103   0.0000      -0.025019        -0.6808
 104   0.0000      -0.002220        -0.0604
 105   0.0000       0.014362         0.3908

MULLIKEN ATOMIC CHARGES
-----------------------
   0 C :   -0.310689
   1 C :    0.001188
   2 O :   -0.351116
   3 P :    0.589138
   4 S :   -0.315997
   5 O :   -0.369455
   6 C :   -0.010299
   7 C :   -0.324022
   8 S :   -0.100182
   9 C :   -0.358480
  10 S :   -0.087966
  11 P :    0.635640
  12 S :   -0.339032
  13 O :   -0.352227
  14 C :   -0.007671
  15 C :   -0.305669
  16 O :   -0.373346
  17 C :   -0.004665
  18 C :   -0.308547
  19 H :    0.126554
  20 H :    0.109022
  21 H :    0.121711
  22 H :    0.104718
  23 H :    0.105219
  24 H :    0.112361
  25 H :    0.115025
  26 H :    0.123820
  27 H :    0.129653
  28 H :    0.109370
  29 H :    0.183059
  30 H :    0.213812
  31 H :    0.108427
  32 H :    0.116368
  33 H :    0.117175
  34 H :    0.111563
  35 H :    0.120115
  36 H :    0.105701
  37 H :    0.109996
  38 H :    0.113187
  39 H :    0.117395
  40 H :    0.119144
Sum of atomic charges:    0.0000000

LOEWDIN ATOMIC CHARGES
----------------------
   0 C :   -0.370549
   1 C :   -0.119597
   2 O :   -0.231677
   3 P :    0.567038
   4 S :   -0.312152
   5 O :   -0.237447
   6 C :   -0.129894
   7 C :   -0.369306
   8 S :    0.073222
   9 C :   -0.478025
  10 S :    0.109490
  11 P :    0.581494
  12 S :   -0.305167
  13 O :   -0.226419
  14 C :   -0.114084
  15 C :   -0.364677
  16 O :   -0.246116
  17 C :   -0.120222
  18 C :   -0.369122
  19 H :    0.128535
  20 H :    0.128921
  21 H :    0.118788
  22 H :    0.120237
  23 H :    0.097383
  24 H :    0.112253
  25 H :    0.108147
  26 H :    0.120218
  27 H :    0.120995
  28 H :    0.131152
  29 H :    0.139327
  30 H :    0.124454
  31 H :    0.121249
  32 H :    0.111418
  33 H :    0.126658
  34 H :    0.130034
  35 H :    0.121642
  36 H :    0.119012
  37 H :    0.109160
  38 H :    0.130787
  39 H :    0.118388
  40 H :    0.124451

  Mayer bond orders larger than 0.100000
B(  0-C ,  1-C ) :   1.1638 B(  0-C , 19-H ) :   0.9417 B(  0-C , 20-H ) :   0.9351
B(  0-C , 21-H ) :   0.9349 B(  1-C ,  2-O ) :   0.9149 B(  1-C , 22-H ) :   0.9348
B(  1-C , 23-H ) :   0.9114 B(  2-O ,  3-P ) :   1.1188 B(  3-P ,  4-S ) :   1.6476
B(  3-P ,  5-O ) :   1.0863 B(  3-P ,  8-S ) :   0.9513 B(  5-O ,  6-C ) :   0.8984
B(  6-C ,  7-C ) :   1.1702 B(  6-C , 24-H ) :   0.9142 B(  6-C , 25-H ) :   0.9094
B(  7-C , 26-H ) :   0.9344 B(  7-C , 27-H ) :   0.9334 B(  7-C , 28-H ) :   0.9381
B(  8-S ,  9-C ) :   0.9872 B(  9-C , 10-S ) :   1.0069 B(  9-C , 29-H ) :   0.9097
B(  9-C , 30-H ) :   0.8506 B( 10-S , 11-P ) :   0.9652 B( 10-S , 12-S ) :   0.1133
B( 11-P , 12-S ) :   1.5667 B( 11-P , 13-O ) :   1.1509 B( 11-P , 16-O ) :   1.0990
B( 13-O , 14-C ) :   0.9071 B( 14-C , 15-C ) :   1.1601 B( 14-C , 31-H ) :   0.9344
B( 14-C , 32-H ) :   0.9175 B( 15-C , 33-H ) :   0.9454 B( 15-C , 34-H ) :   0.9393
B( 15-C , 35-H ) :   0.9390 B( 16-O , 17-C ) :   0.9139 B( 17-C , 18-C ) :   1.1672
B( 17-C , 36-H ) :   0.9339 B( 17-C , 37-H ) :   0.9158 B( 18-C , 38-H ) :   0.9377
B( 18-C , 39-H ) :   0.9389 B( 18-C , 40-H ) :   0.9434

Dispersion correction           -0.070576365
FINAL SINGLE POINT ENERGY     -2929.519225227662

DIPOLE MOMENT
-------------

Method             : SCF
Type of density    : Electron Density
Multiplicity       :   1
Irrep              :   0
Energy             : -2929.6377651097054695 Eh
Relativity type    :
Basis              : AO
                                X                 Y                 Z
Electronic contribution:     10.432100695      -3.165861821      -3.762374663
Nuclear contribution   :    -11.824628271       2.677464682       4.303037529
                        -----------------------------------------
Total Dipole Moment    :     -1.392527576      -0.488397140       0.540662866
                        -----------------------------------------
Magnitude (a.u.)       :      1.571617368
Magnitude (Debye)      :      3.994733883

Rotational constants in cm-1:             0.011995             0.005839             0.005630
Rotational constants in MHz :           359.615849           175.047214           168.789789

                             ****ORCA TERMINATED NORMALLY****
TOTAL RUN TIME: 0 days 0 hours 0 minutes 22 seconds 636 msec
