                         Program Version 6.0.0  -   RELEASE  -
|  1> ! pbe def2-sv(p) def2/J RI DEFGRID1 loosescf d4 GCP(DFT/SV(P)) printgap
|  2> %output
|  3>     printlevel normal
|  4> end
|  5> * xyz 0 1
|  6> C 2.3603682875 -0.51013524 -3.7256964227
|  7> C 1.7453123973 -0.1761814066 -2.3824370784
|  8> O 2.6547474081 -0.6234926491 -1.3627864701
|  9> P 2.4625374585 -0.2706666948 0.1671139448
| 10> S 2.4559213306 1.6301957124 0.6616727256
| 11> O 3.7172632924 -1.0983184508 0.6583776177
| 12> C 4.3774703768 -0.8251587027 1.9060601835
| 13> C 3.4993067249 -1.1532633805 3.0971562037
| 14> S 0.7483742674 -1.4058220801 0.733627634
| 15> C -0.0561769029 -0.2190152041 1.8682094967
| 16> S -1.8572974326 -0.335445288 1.8116260934
| 17> P -2.1749351912 0.2711723312 -0.1761759721
| 18> S -0.9532505913 1.5931899515 -0.9734596004
| 19> O -3.7079353628 0.6887490996 -0.225048494
| 20> C -4.1554195351 2.0294620872 0.0396163018
| 21> C -3.9142161166 2.4405579145 1.4775255705
| 22> O -2.1898481086 -1.149218513 -0.8755026321
| 23> C -2.2054624319 -1.3162309854 -2.3079392836
| 24> C -3.6182443237 -1.2834417987 -2.8542941365
| 25> H 1.6881121578 -0.1910226206 -4.5152878559
| 26> H 3.3118692889 0.0023176994 -3.8334404585
| 27> H 2.5264099177 -1.5808670096 -3.7982902305
| 28> H 0.7889232485 -0.6904407116 -2.2431877585
| 29> H 1.5801171929 0.900988767 -2.2691230454
| 30> H 5.2661871075 -1.4567000951 1.8726236212
| 31> H 4.6699925893 0.2294970242 1.9231745678
| 32> H 4.0819961938 -1.0698916685 4.0089767387
| 33> H 2.6696127212 -0.4486131953 3.1439136968
| 34> H 3.1071601202 -2.1635212555 3.0096687881
| 35> H 0.2686179751 0.7890412782 1.5935491154
| 36> H 0.2160506037 -0.4579094543 2.8934924088
| 37> H -3.6373062467 2.7078729299 -0.6460040727
| 38> H -5.2196937165 2.0011471664 -0.1980022699
| 39> H -2.8446520832 2.5266429561 1.6662223649
| 40> H -4.3803922725 3.4037533435 1.658940553
| 41> H -4.3310519688 1.7015325385 2.1570558063
| 42> H -1.59227961 -0.5282607203 -2.7603510074
| 43> H -1.7370703837 -2.2890107857 -2.4696240071
| 44> H -4.2322237055 -2.01537366 -2.3371506056
| 45> H -4.0548997414 -0.2974353916 -2.7139009383
| 46> H -3.5950735889 -1.5154249905 -3.9145579057
| 47> *
| 48>
| 49>                          ****END OF INPUT****

CARTESIAN COORDINATES (ANGSTROEM)
---------------------------------
  C      2.360368   -0.510135   -3.725696
  C      1.745312   -0.176181   -2.382437
  O      2.654747   -0.623493   -1.362786
  P      2.462537   -0.270667    0.167114
  S      2.455921    1.630196    0.661673
  O      3.717263   -1.098318    0.658378
  C      4.377470   -0.825159    1.906060
  C      3.499307   -1.153263    3.097156
  S      0.748374   -1.405822    0.733628
  C     -0.056177   -0.219015    1.868209
  S     -1.857297   -0.335445    1.811626
  P     -2.174935    0.271172   -0.176176
  S     -0.953251    1.593190   -0.973460
  O     -3.707935    0.688749   -0.225048
  C     -4.155420    2.029462    0.039616
  C     -3.914216    2.440558    1.477526
  O     -2.189848   -1.149219   -0.875503
  C     -2.205462   -1.316231   -2.307939
  C     -3.618244   -1.283442   -2.854294
  H      1.688112   -0.191023   -4.515288
  H      3.311869    0.002318   -3.833440
  H      2.526410   -1.580867   -3.798290
  H      0.788923   -0.690441   -2.243188
  H      1.580117    0.900989   -2.269123
  H      5.266187   -1.456700    1.872624
  H      4.669993    0.229497    1.923175
  H      4.081996   -1.069892    4.008977
  H      2.669613   -0.448613    3.143914
  H      3.107160   -2.163521    3.009669
  H      0.268618    0.789041    1.593549
  H      0.216051   -0.457909    2.893492
  H     -3.637306    2.707873   -0.646004
  H     -5.219694    2.001147   -0.198002
  H     -2.844652    2.526643    1.666222
  H     -4.380392    3.403753    1.658941
  H     -4.331052    1.701533    2.157056
  H     -1.592280   -0.528261   -2.760351
  H     -1.737070   -2.289011   -2.469624
  H     -4.232224   -2.015374   -2.337151
  H     -4.054900   -0.297435   -2.713901
  H     -3.595074   -1.515425   -3.914558

 Total Charge           Charge          ....    0
 Multiplicity           Mult            ....    1
 Number of Electrons    NEL             ....  202
 Basis Dimension        Dim             ....  334

ORBITAL ENERGIES
----------------

  NO   OCC          E(Eh)            E(eV)
   0   2.0000     -88.047656     -2395.8985
   1   2.0000     -88.039641     -2395.6804
   2   2.0000     -87.987315     -2394.2566
   3   2.0000     -87.984897     -2394.1908
   4   2.0000     -76.427855     -2079.7077
   5   2.0000     -76.422249     -2079.5551
   6   2.0000     -18.796251      -511.4720
   7   2.0000     -18.790500      -511.3155
   8   2.0000     -18.786499      -511.2066
   9   2.0000     -18.784965      -511.1649
  10   2.0000      -9.954750      -270.8825
  11   2.0000      -9.954295      -270.8701
  12   2.0000      -9.953861      -270.8583
  13   2.0000      -9.950295      -270.7613
  14   2.0000      -9.943914      -270.5877
  15   2.0000      -9.886880      -269.0357
  16   2.0000      -9.885783      -269.0058
  17   2.0000      -9.885290      -268.9924
  18   2.0000      -9.882143      -268.9068
  19   2.0000      -7.693138      -209.3409
  20   2.0000      -7.684221      -209.0983
  21   2.0000      -7.632010      -207.6776
  22   2.0000      -7.629851      -207.6188
  23   2.0000      -6.425496      -174.8466
  24   2.0000      -6.419686      -174.6885
  25   2.0000      -5.721146      -155.6803
  26   2.0000      -5.717540      -155.5822
  27   2.0000      -5.712092      -155.4339
  28   2.0000      -5.710002      -155.3771
  29   2.0000      -5.708815      -155.3448
  30   2.0000      -5.701226      -155.1383
  31   2.0000      -5.660762      -154.0372
  32   2.0000      -5.658617      -153.9788
  33   2.0000      -5.652846      -153.8218
  34   2.0000      -5.652151      -153.8029
  35   2.0000      -5.650478      -153.7573
  36   2.0000      -5.650165      -153.7488
  37   2.0000      -4.647967      -126.4776
  38   2.0000      -4.647218      -126.4572
  39   2.0000      -4.646049      -126.4254
  40   2.0000      -4.641902      -126.3126
  41   2.0000      -4.641626      -126.3051
  42   2.0000      -4.640261      -126.2679
  43   2.0000      -0.988780       -26.9061
  44   2.0000      -0.985132       -26.8068
  45   2.0000      -0.947656       -25.7870
  46   2.0000      -0.940479       -25.5917
  47   2.0000      -0.762908       -20.7598
  48   2.0000      -0.720992       -19.6192
  49   2.0000      -0.710227       -19.3263
  50   2.0000      -0.690038       -18.7769
  51   2.0000      -0.682390       -18.5688
  52   2.0000      -0.676146       -18.3989
  53   2.0000      -0.651188       -17.7197
  54   2.0000      -0.633796       -17.2465
  55   2.0000      -0.603832       -16.4311
  56   2.0000      -0.594392       -16.1742
  57   2.0000      -0.575132       -15.6501
  58   2.0000      -0.562130       -15.2963
  59   2.0000      -0.558358       -15.1937
  60   2.0000      -0.501374       -13.6431
  61   2.0000      -0.495795       -13.4913
  62   2.0000      -0.475397       -12.9362
  63   2.0000      -0.465617       -12.6701
  64   2.0000      -0.453062       -12.3284
  65   2.0000      -0.446484       -12.1494
  66   2.0000      -0.439587       -11.9618
  67   2.0000      -0.435568       -11.8524
  68   2.0000      -0.429275       -11.6812
  69   2.0000      -0.422373       -11.4934
  70   2.0000      -0.412606       -11.2276
  71   2.0000      -0.393661       -10.7121
  72   2.0000      -0.391534       -10.6542
  73   2.0000      -0.385232       -10.4827
  74   2.0000      -0.383751       -10.4424
  75   2.0000      -0.377025       -10.2594
  76   2.0000      -0.370767       -10.0891
  77   2.0000      -0.356878        -9.7111
  78   2.0000      -0.352594        -9.5946
  79   2.0000      -0.351188        -9.5563
  80   2.0000      -0.346687        -9.4338
  81   2.0000      -0.345652        -9.4057
  82   2.0000      -0.341500        -9.2927
  83   2.0000      -0.337714        -9.1897
  84   2.0000      -0.334219        -9.0945
  85   2.0000      -0.313691        -8.5360
  86   2.0000      -0.308399        -8.3920
  87   2.0000      -0.298826        -8.1315
  88   2.0000      -0.298369        -8.1190
  89   2.0000      -0.288194        -7.8422
  90   2.0000      -0.284708        -7.7473
  91   2.0000      -0.278703        -7.5839
  92   2.0000      -0.266540        -7.2529
  93   2.0000      -0.263167        -7.1611
  94   2.0000      -0.254992        -6.9387
  95   2.0000      -0.235021        -6.3952
  96   2.0000      -0.222512        -6.0549
  97   2.0000      -0.212449        -5.7810
  98   2.0000      -0.202727        -5.5165
  99   2.0000      -0.200823        -5.4647
 100   2.0000      -0.192821        -5.2469
 101   0.0000      -0.043235        -1.1765
 102   0.0000      -0.033300        -0.9061
 103   0.0000      -0.012395        -0.3373
 104   0.0000       0.012827         0.3490
 105   0.0000       0.014980         0.4076

MULLIKEN ATOMIC CHARGES
-----------------------
   0 C :   -0.272400
   1 C :   -0.040435
   2 O :   -0.359767
   3 P :    0.601404
   4 S :   -0.317815
   5 O :   -0.357197
   6 C :    0.004824
   7 C :   -0.327610
   8 S :   -0.106926
   9 C :   -0.370512
  10 S :   -0.079625
  11 P :    0.612944
  12 S :   -0.325003
  13 O :   -0.373989
  14 C :   -0.003104
  15 C :   -0.319233
  16 O :   -0.361075
  17 C :   -0.031886
  18 C :   -0.276975
  19 H :    0.108880
  20 H :    0.118392
  21 H :    0.112370
  22 H :    0.120801
  23 H :    0.121105
  24 H :    0.106766
  25 H :    0.111899
  26 H :    0.113079
  27 H :    0.121883
  28 H :    0.122350
  29 H :    0.212158
  30 H :    0.188044
  31 H :    0.111796
  32 H :    0.105525
  33 H :    0.130689
  34 H :    0.115005
  35 H :    0.119135
  36 H :    0.109450
  37 H :    0.109379
  38 H :    0.117244
  39 H :    0.119259
  40 H :    0.109170
Sum of atomic charges:   -0.0000000

LOEWDIN ATOMIC CHARGES
----------------------
   0 C :   -0.350059
   1 C :   -0.124596
   2 O :   -0.234402
   3 P :    0.567911
   4 S :   -0.302164
   5 O :   -0.236849
   6 C :   -0.116330
   7 C :   -0.369350
   8 S :    0.062785
   9 C :   -0.481319
  10 S :    0.101873
  11 P :    0.566183
  12 S :   -0.305801
  13 O :   -0.244497
  14 C :   -0.119346
  15 C :   -0.369970
  16 O :   -0.239766
  17 C :   -0.120074
  18 C :   -0.358681
  19 H :    0.129077
  20 H :    0.128174
  21 H :    0.125289
  22 H :    0.104956
  23 H :    0.110117
  24 H :    0.119865
  25 H :    0.110976
  26 H :    0.130916
  27 H :    0.118541
  28 H :    0.126396
  29 H :    0.123239
  30 H :    0.131797
  31 H :    0.111183
  32 H :    0.118769
  33 H :    0.122495
  34 H :    0.132093
  35 H :    0.124290
  36 H :    0.104735
  37 H :    0.119377
  38 H :    0.127988
  39 H :    0.124824
  40 H :    0.129355

  Mayer bond orders larger than 0.100000
B(  0-C ,  1-C ) :   1.1538 B(  0-C , 19-H ) :   0.9433 B(  0-C , 20-H ) :   0.9504
B(  0-C , 21-H ) :   0.9498 B(  1-C ,  2-O ) :   0.9060 B(  1-C , 22-H ) :   0.9187
B(  1-C , 23-H ) :   0.9151 B(  2-O ,  3-P ) :   1.1366 B(  3-P ,  4-S ) :   1.6130
B(  3-P ,  5-O ) :   1.1208 B(  3-P ,  8-S ) :   0.9434 B(  4-S ,  8-S ) :   0.1280
B(  5-O ,  6-C ) :   0.9198 B(  6-C ,  7-C ) :   1.1603 B(  6-C , 24-H ) :   0.9344
B(  6-C , 25-H ) :   0.9172 B(  7-C , 26-H ) :   0.9377 B(  7-C , 27-H ) :   0.9320
B(  7-C , 28-H ) :   0.9438 B(  8-S ,  9-C ) :   0.9931 B(  9-C , 10-S ) :   1.0080
B(  9-C , 29-H ) :   0.8477 B(  9-C , 30-H ) :   0.8987 B( 10-S , 11-P ) :   0.9596
B( 10-S , 12-S ) :   0.1131 B( 11-P , 12-S ) :   1.6151 B( 11-P , 13-O ) :   1.1004
B( 11-P , 16-O ) :   1.1275 B( 13-O , 14-C ) :   0.9057 B( 14-C , 15-C ) :   1.1669
B( 14-C , 31-H ) :   0.9157 B( 14-C , 32-H ) :   0.9336 B( 15-C , 33-H ) :   0.9352
B( 15-C , 34-H ) :   0.9374 B( 15-C , 35-H ) :   0.9440 B( 16-O , 17-C ) :   0.9062
B( 17-C , 18-C ) :   1.1632 B( 17-C , 36-H ) :   0.8990 B( 17-C , 37-H ) :   0.9353
B( 18-C , 38-H ) :   0.9465 B( 18-C , 39-H ) :   0.9428 B( 18-C , 40-H ) :   0.9400

Dispersion correction           -0.065182059
FINAL SINGLE POINT ENERGY     -2929.522335403939

DIPOLE MOMENT
-------------

Method             : SCF
Type of density    : Electron Density
Multiplicity       :   1
Irrep              :   0
Energy             : -2929.6408077942187447 Eh
Relativity type    :
Basis              : AO
                                X                 Y                 Z
Electronic contribution:      4.612238324       0.011102747       7.288882461
Nuclear contribution   :     -5.374004289      -0.490044684      -7.374104368
                        -----------------------------------------
Total Dipole Moment    :     -0.761765964      -0.478941937      -0.085221908
                        -----------------------------------------
Magnitude (a.u.)       :      0.903844863
Magnitude (Debye)      :      2.297391066

Rotational constants in cm-1:             0.011613             0.005247             0.004512
Rotational constants in MHz :           348.149245           157.312441           135.280465

                             ****ORCA TERMINATED NORMALLY****
TOTAL RUN TIME: 0 days 0 hours 0 minutes 20 seconds 941 msec
