                         Program Version 6.0.0  -   RELEASE  -
|  1> ! pbe def2-sv(p) def2/J RI DEFGRID1 loosescf d4 GCP(DFT/SV(P)) printgap
|  2> %output
|  3>     printlevel normal
|  4> end
|  5> * xyz 0 1
|  6> C 4.6261181091 0.3269431178 -1.8222188423
|  7> C 4.4332757976 0.8278292068 -0.4059488884
|  8> O 3.3878862405 0.1177835299 0.2810072396
|  9> P 1.8597250755 0.2512468991 -0.1359656318
| 10> S 1.3359196096 2.0739691322 -0.6060433005
| 11> O 1.0964051077 -0.3190056471 1.1250426976
| 12> C 1.6087027578 -1.4436294486 1.8902806352
| 13> C 2.3171316967 -0.9519169856 3.1339434164
| 14> S 1.6596857026 -1.276150683 -1.6136391122
| 15> C -0.1231887348 -1.6075779021 -1.5164547395
| 16> S -1.1721124206 -0.1327154943 -1.6268560224
| 17> P -2.0362544199 -0.1460621855 0.327630746
| 18> S -1.8198854823 -1.799642134 1.3468637574
| 19> O -3.5284660323 0.3234774902 0.0280246187
| 20> C -4.4076089798 -0.2382651387 -0.9647326093
| 21> C -4.5850995132 -1.7350634637 -0.819922941
| 22> O -1.5168037591 1.0837678582 1.1615589518
| 23> C -1.7937592784 2.4691066809 0.8334933881
| 24> C -1.1249882907 3.3251309681 1.8870451589
| 25> H 3.7484791473 0.5632433902 -2.4229421358
| 26> H 5.4922574656 0.8126638201 -2.2598849187
| 27> H 4.7730770074 -0.7501456696 -1.827917676
| 28> H 4.1857769935 1.8941318951 -0.4042039096
| 29> H 5.3165680598 0.6496816145 0.2088165029
| 30> H 0.7239223742 -2.0319598446 2.1441392173
| 31> H 2.2770221084 -2.0303310665 1.2555403358
| 32> H 3.1900142326 -0.3624599123 2.8653351938
| 33> H 1.642690755 -0.3366130282 3.7235757096
| 34> H 2.6276130385 -1.8088816661 3.7234086386
| 35> H -0.3605384117 -2.1267586117 -0.5822941439
| 36> H -0.3407762154 -2.2334979955 -2.3787970876
| 37> H -5.3472062215 0.2917936444 -0.7988374301
| 38> H -4.0102560263 0.0122057778 -1.9521868779
| 39> H -4.9086995289 -1.9836229563 0.1880606733
| 40> H -5.3296454705 -2.0771367539 -1.5314286931
| 41> H -3.6449214235 -2.2485943254 -1.0147267772
| 42> H -1.388250267 2.6787917898 -0.1602522186
| 43> H -2.876215031 2.6077749116 0.8265376833
| 44> H -0.0480054827 3.1833092786 1.8470686983
| 45> H -1.3529346824 4.3679755951 1.6925782418
| 46> H -1.4827977815 3.0499990958 2.8750960774
| 47> *
| 48>
| 49>                          ****END OF INPUT****

CARTESIAN COORDINATES (ANGSTROEM)
---------------------------------
  C      4.626118    0.326943   -1.822219
  C      4.433276    0.827829   -0.405949
  O      3.387886    0.117784    0.281007
  P      1.859725    0.251247   -0.135966
  S      1.335920    2.073969   -0.606043
  O      1.096405   -0.319006    1.125043
  C      1.608703   -1.443629    1.890281
  C      2.317132   -0.951917    3.133943
  S      1.659686   -1.276151   -1.613639
  C     -0.123189   -1.607578   -1.516455
  S     -1.172112   -0.132715   -1.626856
  P     -2.036254   -0.146062    0.327631
  S     -1.819885   -1.799642    1.346864
  O     -3.528466    0.323477    0.028025
  C     -4.407609   -0.238265   -0.964733
  C     -4.585100   -1.735063   -0.819923
  O     -1.516804    1.083768    1.161559
  C     -1.793759    2.469107    0.833493
  C     -1.124988    3.325131    1.887045
  H      3.748479    0.563243   -2.422942
  H      5.492257    0.812664   -2.259885
  H      4.773077   -0.750146   -1.827918
  H      4.185777    1.894132   -0.404204
  H      5.316568    0.649682    0.208817
  H      0.723922   -2.031960    2.144139
  H      2.277022   -2.030331    1.255540
  H      3.190014   -0.362460    2.865335
  H      1.642691   -0.336613    3.723576
  H      2.627613   -1.808882    3.723409
  H     -0.360538   -2.126759   -0.582294
  H     -0.340776   -2.233498   -2.378797
  H     -5.347206    0.291794   -0.798837
  H     -4.010256    0.012206   -1.952187
  H     -4.908700   -1.983623    0.188061
  H     -5.329645   -2.077137   -1.531429
  H     -3.644921   -2.248594   -1.014727
  H     -1.388250    2.678792   -0.160252
  H     -2.876215    2.607775    0.826538
  H     -0.048005    3.183309    1.847069
  H     -1.352935    4.367976    1.692578
  H     -1.482798    3.049999    2.875096

 Total Charge           Charge          ....    0
 Multiplicity           Mult            ....    1
 Number of Electrons    NEL             ....  202
 Basis Dimension        Dim             ....  334

ORBITAL ENERGIES
----------------

  NO   OCC          E(Eh)            E(eV)
   0   2.0000     -88.043500     -2395.7854
   1   2.0000     -88.039239     -2395.6695
   2   2.0000     -87.984282     -2394.1740
   3   2.0000     -87.983543     -2394.1539
   4   2.0000     -76.425200     -2079.6354
   5   2.0000     -76.424223     -2079.6088
   6   2.0000     -18.794332      -511.4198
   7   2.0000     -18.791800      -511.3509
   8   2.0000     -18.787550      -511.2352
   9   2.0000     -18.781756      -511.0776
  10   2.0000      -9.955772      -270.9103
  11   2.0000      -9.954555      -270.8772
  12   2.0000      -9.954161      -270.8665
  13   2.0000      -9.943568      -270.5782
  14   2.0000      -9.942134      -270.5392
  15   2.0000      -9.886632      -269.0289
  16   2.0000      -9.882824      -268.9253
  17   2.0000      -9.878498      -268.8076
  18   2.0000      -9.873660      -268.6759
  19   2.0000      -7.687910      -209.1987
  20   2.0000      -7.684388      -209.1028
  21   2.0000      -7.629451      -207.6079
  22   2.0000      -7.628569      -207.5839
  23   2.0000      -6.422617      -174.7683
  24   2.0000      -6.421301      -174.7325
  25   2.0000      -5.715660      -155.5310
  26   2.0000      -5.712378      -155.4417
  27   2.0000      -5.712349      -155.4409
  28   2.0000      -5.708812      -155.3447
  29   2.0000      -5.705132      -155.2445
  30   2.0000      -5.701387      -155.1426
  31   2.0000      -5.658409      -153.9731
  32   2.0000      -5.657551      -153.9498
  33   2.0000      -5.650101      -153.7471
  34   2.0000      -5.649428      -153.7287
  35   2.0000      -5.649130      -153.7206
  36   2.0000      -5.648662      -153.7079
  37   2.0000      -4.645811      -126.4190
  38   2.0000      -4.644347      -126.3791
  39   2.0000      -4.644040      -126.3708
  40   2.0000      -4.643151      -126.3466
  41   2.0000      -4.642583      -126.3311
  42   2.0000      -4.641635      -126.3053
  43   2.0000      -0.987505       -26.8714
  44   2.0000      -0.983443       -26.7609
  45   2.0000      -0.943274       -25.6678
  46   2.0000      -0.936894       -25.4942
  47   2.0000      -0.759715       -20.6729
  48   2.0000      -0.717531       -19.5250
  49   2.0000      -0.707004       -19.2386
  50   2.0000      -0.688927       -18.7467
  51   2.0000      -0.685869       -18.6634
  52   2.0000      -0.671978       -18.2854
  53   2.0000      -0.649346       -17.6696
  54   2.0000      -0.637642       -17.3511
  55   2.0000      -0.594570       -16.1791
  56   2.0000      -0.586844       -15.9688
  57   2.0000      -0.569136       -15.4870
  58   2.0000      -0.566201       -15.4071
  59   2.0000      -0.559364       -15.2211
  60   2.0000      -0.503342       -13.6966
  61   2.0000      -0.496844       -13.5198
  62   2.0000      -0.473522       -12.8852
  63   2.0000      -0.469725       -12.7819
  64   2.0000      -0.453703       -12.3459
  65   2.0000      -0.450666       -12.2633
  66   2.0000      -0.435141       -11.8408
  67   2.0000      -0.427231       -11.6255
  68   2.0000      -0.421718       -11.4755
  69   2.0000      -0.419253       -11.4085
  70   2.0000      -0.413727       -11.2581
  71   2.0000      -0.404250       -11.0002
  72   2.0000      -0.387898       -10.5553
  73   2.0000      -0.381205       -10.3731
  74   2.0000      -0.379439       -10.3251
  75   2.0000      -0.364362        -9.9148
  76   2.0000      -0.358602        -9.7581
  77   2.0000      -0.352429        -9.5901
  78   2.0000      -0.351011        -9.5515
  79   2.0000      -0.347618        -9.4592
  80   2.0000      -0.343856        -9.3568
  81   2.0000      -0.343333        -9.3426
  82   2.0000      -0.338534        -9.2120
  83   2.0000      -0.331847        -9.0300
  84   2.0000      -0.326591        -8.8870
  85   2.0000      -0.316745        -8.6191
  86   2.0000      -0.314184        -8.5494
  87   2.0000      -0.298676        -8.1274
  88   2.0000      -0.294316        -8.0088
  89   2.0000      -0.292045        -7.9470
  90   2.0000      -0.286071        -7.7844
  91   2.0000      -0.267590        -7.2815
  92   2.0000      -0.264744        -7.2040
  93   2.0000      -0.258919        -7.0455
  94   2.0000      -0.255426        -6.9505
  95   2.0000      -0.241648        -6.5756
  96   2.0000      -0.225332        -6.1316
  97   2.0000      -0.205535        -5.5929
  98   2.0000      -0.201550        -5.4845
  99   2.0000      -0.194233        -5.2853
 100   2.0000      -0.189164        -5.1474
 101   0.0000      -0.045950        -1.2504
 102   0.0000      -0.031944        -0.8692
 103   0.0000      -0.014325        -0.3898
 104   0.0000       0.005918         0.1610
 105   0.0000       0.016595         0.4516

MULLIKEN ATOMIC CHARGES
-----------------------
   0 C :   -0.328457
   1 C :   -0.000961
   2 O :   -0.380305
   3 P :    0.602581
   4 S :   -0.303242
   5 O :   -0.351960
   6 C :   -0.020851
   7 C :   -0.285703
   8 S :   -0.111457
   9 C :   -0.338778
  10 S :   -0.111778
  11 P :    0.635775
  12 S :   -0.314791
  13 O :   -0.387381
  14 C :   -0.004785
  15 C :   -0.306167
  16 O :   -0.351889
  17 C :   -0.014367
  18 C :   -0.282542
  19 H :    0.133438
  20 H :    0.117105
  21 H :    0.121422
  22 H :    0.113078
  23 H :    0.105113
  24 H :    0.122523
  25 H :    0.097491
  26 H :    0.113820
  27 H :    0.122691
  28 H :    0.107087
  29 H :    0.194667
  30 H :    0.179131
  31 H :    0.106285
  32 H :    0.110518
  33 H :    0.126797
  34 H :    0.109879
  35 H :    0.117956
  36 H :    0.112363
  37 H :    0.103104
  38 H :    0.126613
  39 H :    0.103335
  40 H :    0.112644
Sum of atomic charges:    0.0000000

LOEWDIN ATOMIC CHARGES
----------------------
   0 C :   -0.372980
   1 C :   -0.119482
   2 O :   -0.244700
   3 P :    0.569067
   4 S :   -0.297227
   5 O :   -0.231175
   6 C :   -0.123466
   7 C :   -0.356344
   8 S :    0.060285
   9 C :   -0.484021
  10 S :    0.077623
  11 P :    0.576619
  12 S :   -0.287402
  13 O :   -0.246371
  14 C :   -0.116747
  15 C :   -0.368759
  16 O :   -0.225642
  17 C :   -0.118758
  18 C :   -0.353184
  19 H :    0.122992
  20 H :    0.133464
  21 H :    0.124813
  22 H :    0.111472
  23 H :    0.118572
  24 H :    0.110999
  25 H :    0.104406
  26 H :    0.122422
  27 H :    0.130196
  28 H :    0.128963
  29 H :    0.119188
  30 H :    0.136984
  31 H :    0.119814
  32 H :    0.106649
  33 H :    0.130131
  34 H :    0.129228
  35 H :    0.118546
  36 H :    0.105754
  37 H :    0.108820
  38 H :    0.125887
  39 H :    0.127659
  40 H :    0.125704

  Mayer bond orders larger than 0.100000
B(  0-C ,  1-C ) :   1.1656 B(  0-C , 19-H ) :   0.9316 B(  0-C , 20-H ) :   0.9375
B(  0-C , 21-H ) :   0.9429 B(  1-C ,  2-O ) :   0.9080 B(  1-C , 22-H ) :   0.9141
B(  1-C , 23-H ) :   0.9326 B(  2-O ,  3-P ) :   1.0678 B(  3-P ,  4-S ) :   1.6423
B(  3-P ,  5-O ) :   1.1339 B(  3-P ,  8-S ) :   0.9560 B(  4-S ,  8-S ) :   0.1075
B(  5-O ,  6-C ) :   0.8850 B(  6-C ,  7-C ) :   1.1702 B(  6-C , 24-H ) :   0.9050
B(  6-C , 25-H ) :   0.9138 B(  7-C , 26-H ) :   0.9454 B(  7-C , 27-H ) :   0.9466
B(  7-C , 28-H ) :   0.9403 B(  8-S ,  9-C ) :   0.9852 B(  9-C , 10-S ) :   1.0137
B(  9-C , 29-H ) :   0.8459 B(  9-C , 30-H ) :   0.9119 B( 10-S , 11-P ) :   0.9420
B( 10-S , 12-S ) :   0.1181 B( 11-P , 12-S ) :   1.6034 B( 11-P , 13-O ) :   1.0780
B( 11-P , 16-O ) :   1.1559 B( 12-S , 29-H ) :   0.1273 B( 13-O , 14-C ) :   0.9148
B( 14-C , 15-C ) :   1.1669 B( 14-C , 31-H ) :   0.9329 B( 14-C , 32-H ) :   0.9233
B( 15-C , 33-H ) :   0.9433 B( 15-C , 34-H ) :   0.9353 B( 15-C , 35-H ) :   0.9350
B( 16-O , 17-C ) :   0.8845 B( 17-C , 18-C ) :   1.1704 B( 17-C , 36-H ) :   0.9109
B( 17-C , 37-H ) :   0.9254 B( 18-C , 38-H ) :   0.9398 B( 18-C , 39-H ) :   0.9409
B( 18-C , 40-H ) :   0.9495

Dispersion correction           -0.068397632
FINAL SINGLE POINT ENERGY     -2929.515063004174

DIPOLE MOMENT
-------------

Method             : SCF
Type of density    : Electron Density
Multiplicity       :   1
Irrep              :   0
Energy             : -2929.6338595717734279 Eh
Relativity type    :
Basis              : AO
                                X                 Y                 Z
Electronic contribution:     -2.714908909      -2.083508749      -6.025499600
Nuclear contribution   :      2.857983118       1.947116379       5.584230901
                        -----------------------------------------
Total Dipole Moment    :      0.143074208      -0.136392369      -0.441268699
                        -----------------------------------------
Magnitude (a.u.)       :      0.483519567
Magnitude (Debye)      :      1.229009069

Rotational constants in cm-1:             0.012135             0.005604             0.005369
Rotational constants in MHz :           363.796374           167.991191           160.954348

                             ****ORCA TERMINATED NORMALLY****
TOTAL RUN TIME: 0 days 0 hours 0 minutes 21 seconds 314 msec
