                         Program Version 6.0.0  -   RELEASE  -
|  1> ! pbe def2-sv(p) def2/J RI DEFGRID1 loosescf d4 GCP(DFT/SV(P)) printgap
|  2> %output
|  3>     printlevel normal
|  4> end
|  5> * xyz 0 1
|  6> C 5.5497953739 -0.3629555851 -0.3951246955
|  7> C 4.3162202589 -1.2295820431 -0.2488544526
|  8> O 3.2661416195 -0.7856900733 -1.1465767019
|  9> P 2.1069731671 0.1964583256 -0.7326435983
| 10> S 1.040613663 0.6850361176 -2.2962699633
| 11> O 2.8767565208 1.384230393 -0.0181560898
| 12> C 2.2387031483 2.5873130558 0.4523462667
| 13> C 1.9654222671 2.5008200459 1.9403478681
| 14> S 1.1629126218 -0.8204267518 0.8999360737
| 15> C 0.425798298 -2.1811858683 -0.0268015385
| 16> S -1.0565797599 -1.7410699418 -1.0066147429
| 17> P -1.9682176093 -0.3107668368 0.2599416846
| 18> S -1.3008954525 1.5345219683 0.3840814438
| 19> O -2.0148614703 -1.1349204317 1.6044702109
| 20> C -2.1601124363 -0.4960358048 2.8924536575
| 21> C -3.5510034068 0.0719654983 3.0741243689
| 22> O -3.4715544008 -0.378858497 -0.2513681642
| 23> C -3.9560806284 0.3912865883 -1.3665089807
| 24> C -5.4514134694 0.5716288266 -1.1980421908
| 25> H 6.3400791989 -0.7628615197 0.2325215024
| 26> H 5.8804582688 -0.3581459801 -1.4301604252
| 27> H 5.3321372371 0.6578413799 -0.0935070775
| 28> H 3.9377532266 -1.2119266265 0.7765856581
| 29> H 4.5168862994 -2.2578938141 -0.55509608
| 30> H 2.9476656396 3.3849248561 0.2235575401
| 31> H 1.3138733775 2.7513210677 -0.1094842486
| 32> H 2.8831589466 2.2850271893 2.4794499094
| 33> H 1.5570956236 3.4473535623 2.2788019987
| 34> H 1.239573492 1.7166128369 2.1443432904
| 35> H 0.1427660433 -2.9313461772 0.7079072439
| 36> H 1.1454021364 -2.5770157807 -0.7419904918
| 37> H -1.9464444178 -1.2941065098 3.6039938979
| 38> H -1.4051024987 0.2919812059 2.975090396
| 39> H -3.6522953744 0.4657649112 4.080448489
| 40> H -3.712819525 0.8781819078 2.359581741
| 41> H -4.2972248205 -0.7001209984 2.9074361883
| 42> H -3.4341720796 1.3549793343 -1.3835621001
| 43> H -3.7189749785 -0.1541012943 -2.2843733217
| 44> H -5.6619565516 1.1323142515 -0.2916678343
| 45> H -5.8415835702 1.113271351 -2.0534099055
| 46> H -5.9341739133 -0.3990931632 -1.1337432277
| 47> *
| 48>
| 49>                          ****END OF INPUT****

CARTESIAN COORDINATES (ANGSTROEM)
---------------------------------
  C      5.549795   -0.362956   -0.395125
  C      4.316220   -1.229582   -0.248854
  O      3.266142   -0.785690   -1.146577
  P      2.106973    0.196458   -0.732644
  S      1.040614    0.685036   -2.296270
  O      2.876757    1.384230   -0.018156
  C      2.238703    2.587313    0.452346
  C      1.965422    2.500820    1.940348
  S      1.162913   -0.820427    0.899936
  C      0.425798   -2.181186   -0.026802
  S     -1.056580   -1.741070   -1.006615
  P     -1.968218   -0.310767    0.259942
  S     -1.300895    1.534522    0.384081
  O     -2.014861   -1.134920    1.604470
  C     -2.160112   -0.496036    2.892454
  C     -3.551003    0.071965    3.074124
  O     -3.471554   -0.378858   -0.251368
  C     -3.956081    0.391287   -1.366509
  C     -5.451413    0.571629   -1.198042
  H      6.340079   -0.762862    0.232522
  H      5.880458   -0.358146   -1.430160
  H      5.332137    0.657841   -0.093507
  H      3.937753   -1.211927    0.776586
  H      4.516886   -2.257894   -0.555096
  H      2.947666    3.384925    0.223558
  H      1.313873    2.751321   -0.109484
  H      2.883159    2.285027    2.479450
  H      1.557096    3.447354    2.278802
  H      1.239573    1.716613    2.144343
  H      0.142766   -2.931346    0.707907
  H      1.145402   -2.577016   -0.741990
  H     -1.946444   -1.294107    3.603994
  H     -1.405102    0.291981    2.975090
  H     -3.652295    0.465765    4.080448
  H     -3.712820    0.878182    2.359582
  H     -4.297225   -0.700121    2.907436
  H     -3.434172    1.354979   -1.383562
  H     -3.718975   -0.154101   -2.284373
  H     -5.661957    1.132314   -0.291668
  H     -5.841584    1.113271   -2.053410
  H     -5.934174   -0.399093   -1.133743

 Total Charge           Charge          ....    0
 Multiplicity           Mult            ....    1
 Number of Electrons    NEL             ....  202
 Basis Dimension        Dim             ....  334

ORBITAL ENERGIES
----------------

  NO   OCC          E(Eh)            E(eV)
   0   2.0000     -88.042579     -2395.7604
   1   2.0000     -88.031422     -2395.4568
   2   2.0000     -87.979527     -2394.0447
   3   2.0000     -87.971684     -2393.8312
   4   2.0000     -76.422493     -2079.5617
   5   2.0000     -76.420539     -2079.5086
   6   2.0000     -18.791708      -511.3484
   7   2.0000     -18.791600      -511.3454
   8   2.0000     -18.789763      -511.2954
   9   2.0000     -18.786843      -511.2160
  10   2.0000      -9.958402      -270.9819
  11   2.0000      -9.954430      -270.8738
  12   2.0000      -9.951785      -270.8018
  13   2.0000      -9.947992      -270.6986
  14   2.0000      -9.947359      -270.6814
  15   2.0000      -9.884745      -268.9776
  16   2.0000      -9.884326      -268.9662
  17   2.0000      -9.883242      -268.9367
  18   2.0000      -9.881093      -268.8782
  19   2.0000      -7.686727      -209.1665
  20   2.0000      -7.676893      -208.8989
  21   2.0000      -7.624344      -207.4690
  22   2.0000      -7.616976      -207.2684
  23   2.0000      -6.419716      -174.6894
  24   2.0000      -6.417878      -174.6393
  25   2.0000      -5.714529      -155.5002
  26   2.0000      -5.711190      -155.4094
  27   2.0000      -5.705105      -155.2438
  28   2.0000      -5.703890      -155.2107
  29   2.0000      -5.701529      -155.1465
  30   2.0000      -5.693320      -154.9231
  31   2.0000      -5.653127      -153.8294
  32   2.0000      -5.646199      -153.6409
  33   2.0000      -5.644964      -153.6073
  34   2.0000      -5.644628      -153.5981
  35   2.0000      -5.637511      -153.4045
  36   2.0000      -5.636901      -153.3879
  37   2.0000      -4.642378      -126.3255
  38   2.0000      -4.641599      -126.3043
  39   2.0000      -4.640909      -126.2856
  40   2.0000      -4.640028      -126.2616
  41   2.0000      -4.639771      -126.2546
  42   2.0000      -4.637772      -126.2002
  43   2.0000      -0.986012       -26.8307
  44   2.0000      -0.984385       -26.7865
  45   2.0000      -0.944299       -25.6957
  46   2.0000      -0.943436       -25.6722
  47   2.0000      -0.759754       -20.6740
  48   2.0000      -0.717944       -19.5362
  49   2.0000      -0.708547       -19.2805
  50   2.0000      -0.688473       -18.7343
  51   2.0000      -0.686782       -18.6883
  52   2.0000      -0.665935       -18.1210
  53   2.0000      -0.646989       -17.6055
  54   2.0000      -0.631909       -17.1951
  55   2.0000      -0.594894       -16.1879
  56   2.0000      -0.585558       -15.9338
  57   2.0000      -0.573418       -15.6035
  58   2.0000      -0.563477       -15.3330
  59   2.0000      -0.561317       -15.2742
  60   2.0000      -0.503567       -13.7028
  61   2.0000      -0.497148       -13.5281
  62   2.0000      -0.478554       -13.0221
  63   2.0000      -0.476640       -12.9700
  64   2.0000      -0.455587       -12.3972
  65   2.0000      -0.444772       -12.1029
  66   2.0000      -0.436950       -11.8900
  67   2.0000      -0.431678       -11.7466
  68   2.0000      -0.427239       -11.6258
  69   2.0000      -0.410350       -11.1662
  70   2.0000      -0.403330       -10.9752
  71   2.0000      -0.395880       -10.7724
  72   2.0000      -0.390947       -10.6382
  73   2.0000      -0.381169       -10.3721
  74   2.0000      -0.378305       -10.2942
  75   2.0000      -0.371710       -10.1147
  76   2.0000      -0.365493        -9.9456
  77   2.0000      -0.358051        -9.7431
  78   2.0000      -0.354457        -9.6453
  79   2.0000      -0.350564        -9.5393
  80   2.0000      -0.347512        -9.4563
  81   2.0000      -0.346595        -9.4313
  82   2.0000      -0.341002        -9.2791
  83   2.0000      -0.338224        -9.2035
  84   2.0000      -0.326542        -8.8857
  85   2.0000      -0.318771        -8.6742
  86   2.0000      -0.311743        -8.4829
  87   2.0000      -0.295654        -8.0451
  88   2.0000      -0.292264        -7.9529
  89   2.0000      -0.287887        -7.8338
  90   2.0000      -0.283262        -7.7080
  91   2.0000      -0.274488        -7.4692
  92   2.0000      -0.268688        -7.3114
  93   2.0000      -0.257455        -7.0057
  94   2.0000      -0.255844        -6.9619
  95   2.0000      -0.244379        -6.6499
  96   2.0000      -0.220564        -6.0019
  97   2.0000      -0.204157        -5.5554
  98   2.0000      -0.189124        -5.1463
  99   2.0000      -0.179400        -4.8817
 100   2.0000      -0.177803        -4.8383
 101   0.0000      -0.047627        -1.2960
 102   0.0000      -0.024237        -0.6595
 103   0.0000      -0.011016        -0.2998
 104   0.0000       0.004487         0.1221
 105   0.0000       0.021124         0.5748

MULLIKEN ATOMIC CHARGES
-----------------------
   0 C :   -0.288405
   1 C :   -0.012824
   2 O :   -0.361256
   3 P :    0.600909
   4 S :   -0.284649
   5 O :   -0.382159
   6 C :   -0.010362
   7 C :   -0.314487
   8 S :   -0.127979
   9 C :   -0.315302
  10 S :   -0.089607
  11 P :    0.625747
  12 S :   -0.329101
  13 O :   -0.370756
  14 C :   -0.009855
  15 C :   -0.305979
  16 O :   -0.375924
  17 C :   -0.012658
  18 C :   -0.283413
  19 H :    0.107390
  20 H :    0.120226
  21 H :    0.123265
  22 H :    0.099281
  23 H :    0.104790
  24 H :    0.104853
  25 H :    0.126022
  26 H :    0.107175
  27 H :    0.111530
  28 H :    0.143674
  29 H :    0.186182
  30 H :    0.181739
  31 H :    0.101745
  32 H :    0.117597
  33 H :    0.110542
  34 H :    0.124074
  35 H :    0.117418
  36 H :    0.109967
  37 H :    0.105234
  38 H :    0.117614
  39 H :    0.111661
  40 H :    0.116080
Sum of atomic charges:   -0.0000000

LOEWDIN ATOMIC CHARGES
----------------------
   0 C :   -0.359052
   1 C :   -0.117972
   2 O :   -0.239474
   3 P :    0.561733
   4 S :   -0.297481
   5 O :   -0.244283
   6 C :   -0.115899
   7 C :   -0.365052
   8 S :    0.074917
   9 C :   -0.469354
  10 S :    0.074920
  11 P :    0.568519
  12 S :   -0.313032
  13 O :   -0.241364
  14 C :   -0.118172
  15 C :   -0.364850
  16 O :   -0.248229
  17 C :   -0.120711
  18 C :   -0.350763
  19 H :    0.128400
  20 H :    0.128982
  21 H :    0.126552
  22 H :    0.101943
  23 H :    0.118274
  24 H :    0.118114
  25 H :    0.112475
  26 H :    0.121489
  27 H :    0.131855
  28 H :    0.118117
  29 H :    0.135020
  30 H :    0.133441
  31 H :    0.117109
  32 H :    0.110098
  33 H :    0.129844
  34 H :    0.122471
  35 H :    0.126806
  36 H :    0.108208
  37 H :    0.112663
  38 H :    0.126657
  39 H :    0.130661
  40 H :    0.126416

  Mayer bond orders larger than 0.100000
B(  0-C ,  1-C ) :   1.1669 B(  0-C , 19-H ) :   0.9398 B(  0-C , 20-H ) :   0.9471
B(  0-C , 21-H ) :   0.9417 B(  1-C ,  2-O ) :   0.8950 B(  1-C , 22-H ) :   0.9092
B(  1-C , 23-H ) :   0.9360 B(  2-O ,  3-P ) :   1.1161 B(  3-P ,  4-S ) :   1.7196
B(  3-P ,  5-O ) :   1.0885 B(  3-P ,  8-S ) :   0.9151 B(  4-S ,  8-S ) :   0.1156
B(  5-O ,  6-C ) :   0.8949 B(  6-C ,  7-C ) :   1.1713 B(  6-C , 24-H ) :   0.9344
B(  6-C , 25-H ) :   0.9031 B(  7-C , 26-H ) :   0.9466 B(  7-C , 27-H ) :   0.9401
B(  7-C , 28-H ) :   0.9277 B(  8-S ,  9-C ) :   1.0105 B(  9-C , 10-S ) :   0.9839
B(  9-C , 29-H ) :   0.9095 B(  9-C , 30-H ) :   0.9036 B( 10-S , 11-P ) :   0.9839
B( 10-S , 12-S ) :   0.1146 B( 11-P , 12-S ) :   1.5926 B( 11-P , 13-O ) :   1.1181
B( 11-P , 16-O ) :   1.1062 B( 13-O , 14-C ) :   0.8995 B( 14-C , 15-C ) :   1.1665
B( 14-C , 31-H ) :   0.9342 B( 14-C , 32-H ) :   0.9132 B( 15-C , 33-H ) :   0.9388
B( 15-C , 34-H ) :   0.9332 B( 15-C , 35-H ) :   0.9460 B( 16-O , 17-C ) :   0.9064
B( 17-C , 18-C ) :   1.1603 B( 17-C , 36-H ) :   0.9048 B( 17-C , 37-H ) :   0.9311
B( 18-C , 38-H ) :   0.9515 B( 18-C , 39-H ) :   0.9419 B( 18-C , 40-H ) :   0.9506

Dispersion correction           -0.066673599
FINAL SINGLE POINT ENERGY     -2929.511506706694

DIPOLE MOMENT
-------------

Method             : SCF
Type of density    : Electron Density
Multiplicity       :   1
Irrep              :   0
Energy             : -2929.6283262358642787 Eh
Relativity type    :
Basis              : AO
                                X                 Y                 Z
Electronic contribution:      2.553090113      -6.956109421     -12.862800382
Nuclear contribution   :     -2.331295116       6.508970916      14.267890566
                        -----------------------------------------
Total Dipole Moment    :      0.221794997      -0.447138505       1.405090184
                        -----------------------------------------
Magnitude (a.u.)       :      1.491108410
Magnitude (Debye)      :      3.790096373

Rotational constants in cm-1:             0.013343             0.004989             0.004797
Rotational constants in MHz :           400.009034           149.575601           143.809592

                             ****ORCA TERMINATED NORMALLY****
TOTAL RUN TIME: 0 days 0 hours 0 minutes 21 seconds 128 msec
