                         Program Version 6.0.0  -   RELEASE  -
|  1> ! pbe def2-sv(p) def2/J RI DEFGRID1 loosescf d4 GCP(DFT/SV(P)) printgap
|  2> %output
|  3>     printlevel normal
|  4> end
|  5> * xyz 0 1
|  6> C 3.9029601182 -0.1985084845 1.8614544451
|  7> C 4.2923730861 -0.6658033525 0.4744780417
|  8> O 3.6410910369 0.0865577856 -0.5795692382
|  9> P 2.0752222894 0.1878857508 -0.8214721313
| 10> S 1.750365277 0.7895611268 -2.6538126865
| 11> O 1.4862668522 1.1246268937 0.3331725816
| 12> C 1.6570209552 2.5523163594 0.2645122724
| 13> C 1.1519376906 3.1347295947 1.5674727744
| 14> S 1.3226760428 -1.6777721049 -0.2362700307
| 15> C -0.1506436507 -1.7806757512 -1.3089863045
| 16> S -1.6817045242 -1.949444109 -0.3725166759
| 17> P -1.8515415809 0.0609178831 0.311903425
| 18> S -1.4472584312 1.4535040643 -1.0069419096
| 19> O -0.9490463945 0.1780727176 1.5964526367
| 20> C -0.7521398105 -0.8283662127 2.621584734
| 21> C -2.0481167744 -1.3076431503 3.2370618659
| 22> O -3.322661438 0.1397048766 0.9075534103
| 23> C -4.4685055201 0.4795573775 0.1106944374
| 24> C -4.8045275723 -0.5943336863 -0.9041710323
| 25> H 4.1208134407 0.8601825847 1.9803864471
| 26> H 2.840782702 -0.3642432495 2.0304145944
| 27> H 4.4697927935 -0.7639415514 2.5945137172
| 28> H 4.0491532816 -1.722242027 0.3370836212
| 29> H 5.3525814424 -0.5011694129 0.2754972242
| 30> H 2.7164725751 2.7734669488 0.0985600862
| 31> H 1.0824444473 2.9248056925 -0.5904527041
| 32> H 1.7318926608 2.7498954609 2.401239439
| 33> H 1.236532461 4.2158346118 1.531453838
| 34> H 0.1091433592 2.8590007838 1.7043797464
| 35> H -0.0601051532 -2.6800476402 -1.9126803827
| 36> H -0.1856796914 -0.8858049172 -1.9374811441
| 37> H -0.1967529162 -1.6620833986 2.182049681
| 38> H -0.1255398551 -0.3134911294 3.3515913732
| 39> H -2.6286536038 -0.4638881718 3.6004518565
| 40> H -2.6378990579 -1.8504909931 2.5015759762
| 41> H -1.8187861074 -1.9707858286 4.0655183573
| 42> H -5.2665580174 0.6032366194 0.8441189952
| 43> H -4.2723675142 1.4330817177 -0.3900461874
| 44> H -4.8757283234 -1.5650488757 -0.420405052
| 45> H -5.7522138685 -0.3558959016 -1.3763109745
| 46> H -4.0327506598 -0.6385155649 -1.6709650311
| 47> *
| 48>
| 49>                          ****END OF INPUT****

CARTESIAN COORDINATES (ANGSTROEM)
---------------------------------
  C      3.902960   -0.198508    1.861454
  C      4.292373   -0.665803    0.474478
  O      3.641091    0.086558   -0.579569
  P      2.075222    0.187886   -0.821472
  S      1.750365    0.789561   -2.653813
  O      1.486267    1.124627    0.333173
  C      1.657021    2.552316    0.264512
  C      1.151938    3.134730    1.567473
  S      1.322676   -1.677772   -0.236270
  C     -0.150644   -1.780676   -1.308986
  S     -1.681705   -1.949444   -0.372517
  P     -1.851542    0.060918    0.311903
  S     -1.447258    1.453504   -1.006942
  O     -0.949046    0.178073    1.596453
  C     -0.752140   -0.828366    2.621585
  C     -2.048117   -1.307643    3.237062
  O     -3.322661    0.139705    0.907553
  C     -4.468506    0.479557    0.110694
  C     -4.804528   -0.594334   -0.904171
  H      4.120813    0.860183    1.980386
  H      2.840783   -0.364243    2.030415
  H      4.469793   -0.763942    2.594514
  H      4.049153   -1.722242    0.337084
  H      5.352581   -0.501169    0.275497
  H      2.716473    2.773467    0.098560
  H      1.082444    2.924806   -0.590453
  H      1.731893    2.749895    2.401239
  H      1.236532    4.215835    1.531454
  H      0.109143    2.859001    1.704380
  H     -0.060105   -2.680048   -1.912680
  H     -0.185680   -0.885805   -1.937481
  H     -0.196753   -1.662083    2.182050
  H     -0.125540   -0.313491    3.351591
  H     -2.628654   -0.463888    3.600452
  H     -2.637899   -1.850491    2.501576
  H     -1.818786   -1.970786    4.065518
  H     -5.266558    0.603237    0.844119
  H     -4.272368    1.433082   -0.390046
  H     -4.875728   -1.565049   -0.420405
  H     -5.752214   -0.355896   -1.376311
  H     -4.032751   -0.638516   -1.670965

 Total Charge           Charge          ....    0
 Multiplicity           Mult            ....    1
 Number of Electrons    NEL             ....  202
 Basis Dimension        Dim             ....  334

ORBITAL ENERGIES
----------------

  NO   OCC          E(Eh)            E(eV)
   0   2.0000     -88.048133     -2395.9115
   1   2.0000     -88.045767     -2395.8471
   2   2.0000     -87.981352     -2394.0943
   3   2.0000     -87.972657     -2393.8577
   4   2.0000     -76.426186     -2079.6623
   5   2.0000     -76.417519     -2079.4264
   6   2.0000     -18.793984      -511.4103
   7   2.0000     -18.790436      -511.3138
   8   2.0000     -18.788930      -511.2728
   9   2.0000     -18.776993      -510.9480
  10   2.0000      -9.958860      -270.9944
  11   2.0000      -9.958386      -270.9815
  12   2.0000      -9.955370      -270.8994
  13   2.0000      -9.952833      -270.8304
  14   2.0000      -9.938142      -270.4306
  15   2.0000      -9.892679      -269.1935
  16   2.0000      -9.888392      -269.0768
  17   2.0000      -9.884620      -268.9742
  18   2.0000      -9.875249      -268.7192
  19   2.0000      -7.692932      -209.3353
  20   2.0000      -7.691002      -209.2828
  21   2.0000      -7.626170      -207.5186
  22   2.0000      -7.618024      -207.2970
  23   2.0000      -6.423398      -174.7896
  24   2.0000      -6.415616      -174.5778
  25   2.0000      -5.720799      -155.6709
  26   2.0000      -5.718786      -155.6161
  27   2.0000      -5.717264      -155.5747
  28   2.0000      -5.715464      -155.5257
  29   2.0000      -5.710126      -155.3804
  30   2.0000      -5.708020      -155.3231
  31   2.0000      -5.655157      -153.8846
  32   2.0000      -5.647205      -153.6683
  33   2.0000      -5.646763      -153.6562
  34   2.0000      -5.646283      -153.6432
  35   2.0000      -5.639022      -153.4456
  36   2.0000      -5.637484      -153.4037
  37   2.0000      -4.646172      -126.4288
  38   2.0000      -4.645279      -126.4045
  39   2.0000      -4.643599      -126.3588
  40   2.0000      -4.638515      -126.2204
  41   2.0000      -4.637209      -126.1849
  42   2.0000      -4.635879      -126.1487
  43   2.0000      -0.987378       -26.8679
  44   2.0000      -0.976566       -26.5737
  45   2.0000      -0.945838       -25.7376
  46   2.0000      -0.935209       -25.4483
  47   2.0000      -0.765722       -20.8364
  48   2.0000      -0.720975       -19.6187
  49   2.0000      -0.711048       -19.3486
  50   2.0000      -0.691562       -18.8184
  51   2.0000      -0.690293       -18.7838
  52   2.0000      -0.674611       -18.3571
  53   2.0000      -0.648091       -17.6354
  54   2.0000      -0.630951       -17.1691
  55   2.0000      -0.598707       -16.2916
  56   2.0000      -0.587298       -15.9812
  57   2.0000      -0.578899       -15.7527
  58   2.0000      -0.571873       -15.5615
  59   2.0000      -0.554846       -15.0981
  60   2.0000      -0.498906       -13.5759
  61   2.0000      -0.491848       -13.3839
  62   2.0000      -0.475775       -12.9465
  63   2.0000      -0.472047       -12.8451
  64   2.0000      -0.451917       -12.2973
  65   2.0000      -0.449935       -12.2433
  66   2.0000      -0.443482       -12.0678
  67   2.0000      -0.437362       -11.9012
  68   2.0000      -0.428065       -11.6482
  69   2.0000      -0.418148       -11.3784
  70   2.0000      -0.409774       -11.1505
  71   2.0000      -0.401803       -10.9336
  72   2.0000      -0.398703       -10.8493
  73   2.0000      -0.381912       -10.3924
  74   2.0000      -0.378361       -10.2957
  75   2.0000      -0.366901        -9.9839
  76   2.0000      -0.362454        -9.8629
  77   2.0000      -0.355971        -9.6865
  78   2.0000      -0.354366        -9.6428
  79   2.0000      -0.354082        -9.6351
  80   2.0000      -0.349325        -9.5056
  81   2.0000      -0.347479        -9.4554
  82   2.0000      -0.342752        -9.3268
  83   2.0000      -0.336046        -9.1443
  84   2.0000      -0.329000        -8.9525
  85   2.0000      -0.315897        -8.5960
  86   2.0000      -0.311462        -8.4753
  87   2.0000      -0.304606        -8.2887
  88   2.0000      -0.293355        -7.9826
  89   2.0000      -0.291027        -7.9192
  90   2.0000      -0.279103        -7.5948
  91   2.0000      -0.268922        -7.3177
  92   2.0000      -0.267239        -7.2719
  93   2.0000      -0.261438        -7.1141
  94   2.0000      -0.254454        -6.9240
  95   2.0000      -0.239603        -6.5199
  96   2.0000      -0.222449        -6.0531
  97   2.0000      -0.209630        -5.7043
  98   2.0000      -0.199528        -5.4294
  99   2.0000      -0.191268        -5.2047
 100   2.0000      -0.178465        -4.8563
 101   0.0000      -0.044379        -1.2076
 102   0.0000      -0.030526        -0.8307
 103   0.0000      -0.014332        -0.3900
 104   0.0000       0.008418         0.2291
 105   0.0000       0.022554         0.6137

MULLIKEN ATOMIC CHARGES
-----------------------
   0 C :   -0.326167
   1 C :   -0.017935
   2 O :   -0.375819
   3 P :    0.611307
   4 S :   -0.303148
   5 O :   -0.371634
   6 C :   -0.011806
   7 C :   -0.281750
   8 S :   -0.125909
   9 C :   -0.336050
  10 S :   -0.111890
  11 P :    0.599298
  12 S :   -0.294376
  13 O :   -0.348200
  14 C :   -0.013038
  15 C :   -0.300406
  16 O :   -0.375109
  17 C :   -0.001181
  18 C :   -0.319590
  19 H :    0.123908
  20 H :    0.135932
  21 H :    0.113795
  22 H :    0.117094
  23 H :    0.114462
  24 H :    0.094826
  25 H :    0.119312
  26 H :    0.101174
  27 H :    0.105177
  28 H :    0.126061
  29 H :    0.187036
  30 H :    0.210486
  31 H :    0.117257
  32 H :    0.109339
  33 H :    0.120890
  34 H :    0.117565
  35 H :    0.111606
  36 H :    0.103817
  37 H :    0.113098
  38 H :    0.114981
  39 H :    0.114690
  40 H :    0.130896
Sum of atomic charges:   -0.0000000

LOEWDIN ATOMIC CHARGES
----------------------
   0 C :   -0.368861
   1 C :   -0.116755
   2 O :   -0.248333
   3 P :    0.564553
   4 S :   -0.305415
   5 O :   -0.246245
   6 C :   -0.122825
   7 C :   -0.352628
   8 S :    0.077560
   9 C :   -0.474361
  10 S :    0.076527
  11 P :    0.568231
  12 S :   -0.288261
  13 O :   -0.225718
  14 C :   -0.117152
  15 C :   -0.366417
  16 O :   -0.242955
  17 C :   -0.119050
  18 C :   -0.371145
  19 H :    0.127844
  20 H :    0.122354
  21 H :    0.131398
  22 H :    0.108991
  23 H :    0.124087
  24 H :    0.103201
  25 H :    0.111326
  26 H :    0.118348
  27 H :    0.127687
  28 H :    0.128657
  29 H :    0.139883
  30 H :    0.128801
  31 H :    0.101767
  32 H :    0.120817
  33 H :    0.128163
  34 H :    0.117739
  35 H :    0.130685
  36 H :    0.118110
  37 H :    0.112304
  38 H :    0.122276
  39 H :    0.131997
  40 H :    0.122817

  Mayer bond orders larger than 0.100000
B(  0-C ,  1-C ) :   1.1616 B(  0-C , 19-H ) :   0.9432 B(  0-C , 20-H ) :   0.9356
B(  0-C , 21-H ) :   0.9356 B(  1-C ,  2-O ) :   0.9136 B(  1-C , 22-H ) :   0.9201
B(  1-C , 23-H ) :   0.9355 B(  2-O ,  3-P ) :   1.1043 B(  3-P ,  4-S ) :   1.6539
B(  3-P ,  5-O ) :   1.0933 B(  3-P ,  8-S ) :   0.9606 B(  4-S ,  8-S ) :   0.1086
B(  5-O ,  6-C ) :   0.8948 B(  6-C ,  7-C ) :   1.1627 B(  6-C , 24-H ) :   0.9234
B(  6-C , 25-H ) :   0.9124 B(  7-C , 26-H ) :   0.9515 B(  7-C , 27-H ) :   0.9419
B(  7-C , 28-H ) :   0.9409 B(  8-S ,  9-C ) :   0.9924 B(  9-C , 10-S ) :   1.0109
B(  9-C , 29-H ) :   0.9105 B(  9-C , 30-H ) :   0.8426 B( 10-S , 11-P ) :   0.9277
B( 10-S , 12-S ) :   0.1044 B( 11-P , 12-S ) :   1.6358 B( 11-P , 13-O ) :   1.1450
B( 11-P , 16-O ) :   1.0884 B( 13-O , 14-C ) :   0.8997 B( 14-C , 15-C ) :   1.1698
B( 14-C , 31-H ) :   0.9075 B( 14-C , 32-H ) :   0.9329 B( 15-C , 33-H ) :   0.9430
B( 15-C , 34-H ) :   0.9377 B( 15-C , 35-H ) :   0.9359 B( 16-O , 17-C ) :   0.9065
B( 17-C , 18-C ) :   1.1659 B( 17-C , 36-H ) :   0.9337 B( 17-C , 37-H ) :   0.9140
B( 18-C , 38-H ) :   0.9450 B( 18-C , 39-H ) :   0.9377 B( 18-C , 40-H ) :   0.9347

Dispersion correction           -0.069088020
FINAL SINGLE POINT ENERGY     -2929.513664063592

DIPOLE MOMENT
-------------

Method             : SCF
Type of density    : Electron Density
Multiplicity       :   1
Irrep              :   0
Energy             : -2929.6319830325055591 Eh
Relativity type    :
Basis              : AO
                                X                 Y                 Z
Electronic contribution:      3.848200421      -3.187321379     -18.589542067
Nuclear contribution   :     -4.072813805       2.356445607      20.502034519
                        -----------------------------------------
Total Dipole Moment    :     -0.224613383      -0.830875772       1.912492452
                        -----------------------------------------
Magnitude (a.u.)       :      2.097244168
Magnitude (Debye)      :      5.330771031

Rotational constants in cm-1:             0.012053             0.005732             0.005539
Rotational constants in MHz :           361.340925           171.850780           166.053981

                             ****ORCA TERMINATED NORMALLY****
TOTAL RUN TIME: 0 days 0 hours 0 minutes 22 seconds 369 msec
