                         Program Version 6.0.1  -  RELEASE   -
|  1> ! r2scan-3c def2/J RI DEFGRID2 scfconv6 printgap
|  2> %output
|  3>     printlevel normal
|  4> end
|  5> * xyz 0 1
|  6> C 2.2409121511 -2.8019697257 0.5649227642
|  7> C 3.2808842072 -1.9285770497 -0.1194282005
|  8> O 2.6629172044 -0.7523232157 -0.6761459174
|  9> C 2.1018798518 -0.8455994043 -1.873239431
| 10> O 2.1658165069 -1.821180823 -2.5827768042
| 11> C 1.3664610576 0.4318353884 -2.2335752032
| 12> C 0.2862744797 0.7194057695 -1.1919553401
| 13> H -0.2536478331 1.6356960245 -1.4476539636
| 14> C 0.8730769335 0.8808760996 0.1996020578
| 15> O 0.5260405053 0.2017037214 1.1457034021
| 16> O 1.7507187538 1.8420179656 0.2483610635
| 17> C 2.3673368247 2.118197341 1.5234215036
| 18> C 3.4643128782 3.1389040754 1.3001141912
| 19> S -0.9184678142 -0.6543309336 -1.1359665024
| 20> P -2.0672093644 0.0103327647 0.5267622795
| 21> S -2.0363915033 1.9279406899 0.9181024911
| 22> O -3.5272285884 -0.5018466383 0.0902043971
| 23> C -4.2397767719 0.1134037951 -0.9864961847
| 24> O -1.8453182744 -0.9263470082 1.7776611676
| 25> C -1.9192699553 -2.3621919145 1.6886123688
| 26> H 1.6726525024 -2.2092371243 1.279578
| 27> H 1.5561880795 -3.2124355456 -0.1746597625
| 28> H 2.7340607343 -3.616745668 1.0839505728
| 29> H 3.7803021716 -2.4734650941 -0.9253063828
| 30> H 4.0117092661 -1.544383762 0.5923727198
| 31> H 0.9175709818 0.3065706135 -3.218064358
| 32> H 2.0706417106 1.2649902487 -2.2409495448
| 33> H 1.590645309 2.4912924393 2.1986009579
| 34> H 2.7545051084 1.1775907135 1.9259089819
| 35> H 4.2152501831 2.7390836492 0.6256484081
| 36> H 3.0466299372 4.0431040495 0.868313082
| 37> H 3.927682633 3.3780574023 2.2513096587
| 38> H -4.2328187076 1.1981593578 -0.8674962663
| 39> H -5.2550809071 -0.2692043119 -0.922722494
| 40> H -3.783778936 -0.1611702731 -1.9375815558
| 41> H -1.6122296641 -2.7218898254 2.6671246371
| 42> H -1.2402042325 -2.7242423461 0.9163063458
| 43> H -2.9396699625 -2.6662430143 1.4621029535
| 44> *
| 45>
| 46>                          ****END OF INPUT****

CARTESIAN COORDINATES (ANGSTROEM)
---------------------------------
  C      2.240912   -2.801970    0.564923
  C      3.280884   -1.928577   -0.119428
  O      2.662917   -0.752323   -0.676146
  C      2.101880   -0.845599   -1.873239
  O      2.165817   -1.821181   -2.582777
  C      1.366461    0.431835   -2.233575
  C      0.286274    0.719406   -1.191955
  H     -0.253648    1.635696   -1.447654
  C      0.873077    0.880876    0.199602
  O      0.526041    0.201704    1.145703
  O      1.750719    1.842018    0.248361
  C      2.367337    2.118197    1.523422
  C      3.464313    3.138904    1.300114
  S     -0.918468   -0.654331   -1.135967
  P     -2.067209    0.010333    0.526762
  S     -2.036392    1.927941    0.918102
  O     -3.527229   -0.501847    0.090204
  C     -4.239777    0.113404   -0.986496
  O     -1.845318   -0.926347    1.777661
  C     -1.919270   -2.362192    1.688612
  H      1.672653   -2.209237    1.279578
  H      1.556188   -3.212436   -0.174660
  H      2.734061   -3.616746    1.083951
  H      3.780302   -2.473465   -0.925306
  H      4.011709   -1.544384    0.592373
  H      0.917571    0.306571   -3.218064
  H      2.070642    1.264990   -2.240950
  H      1.590645    2.491292    2.198601
  H      2.754505    1.177591    1.925909
  H      4.215250    2.739084    0.625648
  H      3.046630    4.043104    0.868313
  H      3.927683    3.378057    2.251310
  H     -4.232819    1.198159   -0.867496
  H     -5.255081   -0.269204   -0.922722
  H     -3.783779   -0.161170   -1.937582
  H     -1.612230   -2.721890    2.667125
  H     -1.240204   -2.724242    0.916306
  H     -2.939670   -2.666243    1.462103

 Total Charge           Charge          ....    0
 Multiplicity           Mult            ....    1
 Number of Electrons    NEL             ....  174
 Basis Dimension        Dim             ....  510

ORBITAL ENERGIES
----------------

  NO   OCC          E(Eh)            E(eV)
   0   2.0000     -88.573707     -2410.2131
   1   2.0000     -88.510728     -2408.4994
   2   2.0000     -76.909390     -2092.8109
   3   2.0000     -19.010493      -517.3018
   4   2.0000     -19.006921      -517.2046
   5   2.0000     -18.985002      -516.6082
   6   2.0000     -18.982399      -516.5373
   7   2.0000     -18.939693      -515.3753
   8   2.0000     -18.935619      -515.2644
   9   2.0000     -10.166209      -276.6366
  10   2.0000     -10.165289      -276.6116
  11   2.0000     -10.100622      -274.8519
  12   2.0000     -10.099155      -274.8120
  13   2.0000     -10.097243      -274.7600
  14   2.0000     -10.091798      -274.6118
  15   2.0000     -10.084395      -274.4103
  16   2.0000     -10.068643      -273.9817
  17   2.0000     -10.037309      -273.1291
  18   2.0000     -10.027390      -272.8592
  19   2.0000      -7.867882      -214.0960
  20   2.0000      -7.805711      -212.4042
  21   2.0000      -6.587197      -179.2467
  22   2.0000      -5.814736      -158.2270
  23   2.0000      -5.811759      -158.1460
  24   2.0000      -5.805018      -157.9626
  25   2.0000      -5.753625      -156.5641
  26   2.0000      -5.746086      -156.3589
  27   2.0000      -5.745313      -156.3379
  28   2.0000      -4.732936      -128.7897
  29   2.0000      -4.732344      -128.7736
  30   2.0000      -4.730653      -128.7276
  31   2.0000      -1.091044       -29.6888
  32   2.0000      -1.081965       -29.4418
  33   2.0000      -1.042899       -28.3787
  34   2.0000      -0.999935       -27.2096
  35   2.0000      -0.989477       -26.9250
  36   2.0000      -0.988115       -26.8880
  37   2.0000      -0.816768       -22.2254
  38   2.0000      -0.755955       -20.5706
  39   2.0000      -0.751259       -20.4428
  40   2.0000      -0.728499       -19.8235
  41   2.0000      -0.696269       -18.9464
  42   2.0000      -0.669206       -18.2100
  43   2.0000      -0.657748       -17.8982
  44   2.0000      -0.649475       -17.6731
  45   2.0000      -0.630424       -17.1547
  46   2.0000      -0.597699       -16.2642
  47   2.0000      -0.545810       -14.8522
  48   2.0000      -0.533435       -14.5155
  49   2.0000      -0.528831       -14.3902
  50   2.0000      -0.502890       -13.6843
  51   2.0000      -0.487471       -13.2648
  52   2.0000      -0.486788       -13.2462
  53   2.0000      -0.474861       -12.9216
  54   2.0000      -0.460750       -12.5376
  55   2.0000      -0.452539       -12.3142
  56   2.0000      -0.449020       -12.2185
  57   2.0000      -0.442530       -12.0418
  58   2.0000      -0.437748       -11.9117
  59   2.0000      -0.427008       -11.6195
  60   2.0000      -0.418957       -11.4004
  61   2.0000      -0.412585       -11.2270
  62   2.0000      -0.409957       -11.1555
  63   2.0000      -0.399420       -10.8688
  64   2.0000      -0.393545       -10.7089
  65   2.0000      -0.387035       -10.5318
  66   2.0000      -0.381197       -10.3729
  67   2.0000      -0.375542       -10.2190
  68   2.0000      -0.367937       -10.0121
  69   2.0000      -0.355781        -9.6813
  70   2.0000      -0.349668        -9.5149
  71   2.0000      -0.345265        -9.3951
  72   2.0000      -0.337121        -9.1735
  73   2.0000      -0.331434        -9.0188
  74   2.0000      -0.326674        -8.8892
  75   2.0000      -0.313453        -8.5295
  76   2.0000      -0.311277        -8.4703
  77   2.0000      -0.307209        -8.3596
  78   2.0000      -0.287486        -7.8229
  79   2.0000      -0.281024        -7.6471
  80   2.0000      -0.276641        -7.5278
  81   2.0000      -0.270743        -7.3673
  82   2.0000      -0.251032        -6.8309
  83   2.0000      -0.245216        -6.6727
  84   2.0000      -0.234105        -6.3703
  85   2.0000      -0.212319        -5.7775
  86   2.0000      -0.205647        -5.5959
  87   0.0000      -0.041267        -1.1229
  88   0.0000      -0.034497        -0.9387
  89   0.0000      -0.016546        -0.4502
  90   0.0000       0.004334         0.1179
  91   0.0000       0.023483         0.6390

MULLIKEN ATOMIC CHARGES
-----------------------
   0 C :   -0.487650
   1 C :   -0.136521
   2 O :   -0.105830
   3 C :    0.318938
   4 O :   -0.393065
   5 C :   -0.408286
   6 C :    0.007444
   7 H :    0.232965
   8 C :    0.249755
   9 O :   -0.401191
  10 O :   -0.114080
  11 C :   -0.153727
  12 C :   -0.453537
  13 S :   -0.204995
  14 P :    0.797769
  15 S :   -0.457480
  16 O :   -0.364214
  17 C :   -0.301457
  18 O :   -0.295193
  19 C :   -0.293062
  20 H :    0.181550
  21 H :    0.172964
  22 H :    0.147383
  23 H :    0.168461
  24 H :    0.147671
  25 H :    0.191960
  26 H :    0.194994
  27 H :    0.169936
  28 H :    0.157093
  29 H :    0.153678
  30 H :    0.156417
  31 H :    0.151312
  32 H :    0.175089
  33 H :    0.149849
  34 H :    0.156131
  35 H :    0.156958
  36 H :    0.164991
  37 H :    0.166981
Sum of atomic charges:    0.0000000

LOEWDIN ATOMIC CHARGES
----------------------
   0 C :   -0.392721
   1 C :    0.035299
   2 O :   -0.592481
   3 C :    0.351662
   4 O :   -0.411497
   5 C :   -0.199977
   6 C :   -0.197920
   7 H :    0.203991
   8 C :    0.329531
   9 O :   -0.455074
  10 O :   -0.567575
  11 C :    0.040487
  12 C :   -0.384703
  13 S :    0.209759
  14 P :    0.411399
  15 S :   -0.081141
  16 O :   -0.691853
  17 C :   -0.064950
  18 O :   -0.636805
  19 C :   -0.049911
  20 H :    0.171891
  21 H :    0.166092
  22 H :    0.157264
  23 H :    0.189589
  24 H :    0.178030
  25 H :    0.188002
  26 H :    0.197832
  27 H :    0.186272
  28 H :    0.182248
  29 H :    0.159062
  30 H :    0.161564
  31 H :    0.161297
  32 H :    0.176177
  33 H :    0.175805
  34 H :    0.167516
  35 H :    0.180532
  36 H :    0.172479
  37 H :    0.172829

  Mayer bond orders larger than 0.100000
B(  0-C ,  1-C ) :   0.9236 B(  0-C , 20-H ) :   0.9630 B(  0-C , 21-H ) :   0.9693
B(  0-C , 22-H ) :   0.9651 B(  1-C ,  2-O ) :   0.7953 B(  1-C , 23-H ) :   0.9634
B(  1-C , 24-H ) :   0.9649 B(  2-O ,  3-C ) :   1.0335 B(  3-C ,  4-O ) :   1.8854
B(  3-C ,  5-C ) :   0.9558 B(  5-C ,  6-C ) :   0.8406 B(  5-C , 25-H ) :   0.9842
B(  5-C , 26-H ) :   0.9548 B(  6-C ,  7-H ) :   0.9131 B(  6-C ,  8-C ) :   0.9238
B(  6-C , 13-S ) :   0.9199 B(  8-C ,  9-O ) :   1.7084 B(  8-C , 10-O ) :   1.2053
B( 10-O , 11-C ) :   0.7739 B( 11-C , 12-C ) :   0.9384 B( 11-C , 27-H ) :   0.9472
B( 11-C , 28-H ) :   0.9566 B( 12-C , 29-H ) :   0.9760 B( 12-C , 30-H ) :   0.9713
B( 12-C , 31-H ) :   0.9681 B( 13-S , 14-P ) :   0.9692 B( 14-P , 15-S ) :   1.7744
B( 14-P , 16-O ) :   0.9990 B( 14-P , 18-O ) :   1.1912 B( 16-O , 17-C ) :   0.8376
B( 17-C , 32-H ) :   0.9581 B( 17-C , 33-H ) :   0.9688 B( 17-C , 34-H ) :   0.9568
B( 18-O , 19-C ) :   0.7943 B( 19-C , 35-H ) :   0.9652 B( 19-C , 36-H ) :   0.9586
B( 19-C , 37-H ) :   0.9621

Dispersion correction           -0.018079011
FINAL SINGLE POINT ENERGY     -1981.449321695338

DIPOLE MOMENT
-------------

Method             : SCF
Type of density    : Electron Density
Multiplicity       :   1
Irrep              :   0
Energy             : -1981.4687897916246584 Eh
Relativity type    :
Basis              : AO
                                X                 Y                 Z
Electronic contribution:    -13.211227243       3.049309017      -3.368676169
Nuclear contribution   :     14.117352928      -3.231551205       3.416696249
                        -----------------------------------------
Total Dipole Moment    :      0.906125685      -0.182242188       0.048020080
                        -----------------------------------------
Magnitude (a.u.)       :      0.925517099
Magnitude (Debye)      :      2.352477511

Rotational constants in cm-1:             0.013039             0.007790             0.006506
Rotational constants in MHz :           390.906450           233.532462           195.052022

                             ****ORCA TERMINATED NORMALLY****
TOTAL RUN TIME: 0 days 0 hours 1 minutes 20 seconds 745 msec
