                         Program Version 6.0.1  -  RELEASE   -
|  1> ! r2scan-3c def2/J RI DEFGRID2 scfconv6 printgap
|  2> %output
|  3>     printlevel normal
|  4> end
|  5> %cpcm
|  6>     smd true
|  7>     smdsolvent "water"
|  8> end
|  9> * xyz 0 1
| 10> C 2.2409121511 -2.8019697257 0.5649227642
| 11> C 3.2808842072 -1.9285770497 -0.1194282005
| 12> O 2.6629172044 -0.7523232157 -0.6761459174
| 13> C 2.1018798518 -0.8455994043 -1.873239431
| 14> O 2.1658165069 -1.821180823 -2.5827768042
| 15> C 1.3664610576 0.4318353884 -2.2335752032
| 16> C 0.2862744797 0.7194057695 -1.1919553401
| 17> H -0.2536478331 1.6356960245 -1.4476539636
| 18> C 0.8730769335 0.8808760996 0.1996020578
| 19> O 0.5260405053 0.2017037214 1.1457034021
| 20> O 1.7507187538 1.8420179656 0.2483610635
| 21> C 2.3673368247 2.118197341 1.5234215036
| 22> C 3.4643128782 3.1389040754 1.3001141912
| 23> S -0.9184678142 -0.6543309336 -1.1359665024
| 24> P -2.0672093644 0.0103327647 0.5267622795
| 25> S -2.0363915033 1.9279406899 0.9181024911
| 26> O -3.5272285884 -0.5018466383 0.0902043971
| 27> C -4.2397767719 0.1134037951 -0.9864961847
| 28> O -1.8453182744 -0.9263470082 1.7776611676
| 29> C -1.9192699553 -2.3621919145 1.6886123688
| 30> H 1.6726525024 -2.2092371243 1.279578
| 31> H 1.5561880795 -3.2124355456 -0.1746597625
| 32> H 2.7340607343 -3.616745668 1.0839505728
| 33> H 3.7803021716 -2.4734650941 -0.9253063828
| 34> H 4.0117092661 -1.544383762 0.5923727198
| 35> H 0.9175709818 0.3065706135 -3.218064358
| 36> H 2.0706417106 1.2649902487 -2.2409495448
| 37> H 1.590645309 2.4912924393 2.1986009579
| 38> H 2.7545051084 1.1775907135 1.9259089819
| 39> H 4.2152501831 2.7390836492 0.6256484081
| 40> H 3.0466299372 4.0431040495 0.868313082
| 41> H 3.927682633 3.3780574023 2.2513096587
| 42> H -4.2328187076 1.1981593578 -0.8674962663
| 43> H -5.2550809071 -0.2692043119 -0.922722494
| 44> H -3.783778936 -0.1611702731 -1.9375815558
| 45> H -1.6122296641 -2.7218898254 2.6671246371
| 46> H -1.2402042325 -2.7242423461 0.9163063458
| 47> H -2.9396699625 -2.6662430143 1.4621029535
| 48> *
| 49>
| 50>                          ****END OF INPUT****

CARTESIAN COORDINATES (ANGSTROEM)
---------------------------------
  C      2.240912   -2.801970    0.564923
  C      3.280884   -1.928577   -0.119428
  O      2.662917   -0.752323   -0.676146
  C      2.101880   -0.845599   -1.873239
  O      2.165817   -1.821181   -2.582777
  C      1.366461    0.431835   -2.233575
  C      0.286274    0.719406   -1.191955
  H     -0.253648    1.635696   -1.447654
  C      0.873077    0.880876    0.199602
  O      0.526041    0.201704    1.145703
  O      1.750719    1.842018    0.248361
  C      2.367337    2.118197    1.523422
  C      3.464313    3.138904    1.300114
  S     -0.918468   -0.654331   -1.135967
  P     -2.067209    0.010333    0.526762
  S     -2.036392    1.927941    0.918102
  O     -3.527229   -0.501847    0.090204
  C     -4.239777    0.113404   -0.986496
  O     -1.845318   -0.926347    1.777661
  C     -1.919270   -2.362192    1.688612
  H      1.672653   -2.209237    1.279578
  H      1.556188   -3.212436   -0.174660
  H      2.734061   -3.616746    1.083951
  H      3.780302   -2.473465   -0.925306
  H      4.011709   -1.544384    0.592373
  H      0.917571    0.306571   -3.218064
  H      2.070642    1.264990   -2.240950
  H      1.590645    2.491292    2.198601
  H      2.754505    1.177591    1.925909
  H      4.215250    2.739084    0.625648
  H      3.046630    4.043104    0.868313
  H      3.927683    3.378057    2.251310
  H     -4.232819    1.198159   -0.867496
  H     -5.255081   -0.269204   -0.922722
  H     -3.783779   -0.161170   -1.937582
  H     -1.612230   -2.721890    2.667125
  H     -1.240204   -2.724242    0.916306
  H     -2.939670   -2.666243    1.462103

 Total Charge           Charge          ....    0
 Multiplicity           Mult            ....    1
 Number of Electrons    NEL             ....  174
 Basis Dimension        Dim             ....  510

ORBITAL ENERGIES
----------------

  NO   OCC          E(Eh)            E(eV)
   0   2.0000     -88.579776     -2410.3782
   1   2.0000     -88.526083     -2408.9172
   2   2.0000     -76.920830     -2093.1222
   3   2.0000     -19.013344      -517.3794
   4   2.0000     -19.009582      -517.2770
   5   2.0000     -18.995971      -516.9067
   6   2.0000     -18.989958      -516.7430
   7   2.0000     -18.952076      -515.7122
   8   2.0000     -18.948015      -515.6017
   9   2.0000     -10.174934      -276.8740
  10   2.0000     -10.173194      -276.8267
  11   2.0000     -10.100852      -274.8581
  12   2.0000     -10.089205      -274.5412
  13   2.0000     -10.086789      -274.4755
  14   2.0000     -10.084970      -274.4260
  15   2.0000     -10.079204      -274.2691
  16   2.0000     -10.061920      -273.7988
  17   2.0000     -10.020408      -272.6692
  18   2.0000     -10.019020      -272.6314
  19   2.0000      -7.873951      -214.2611
  20   2.0000      -7.821392      -212.8309
  21   2.0000      -6.598761      -179.5614
  22   2.0000      -5.820804      -158.3921
  23   2.0000      -5.817870      -158.3123
  24   2.0000      -5.811053      -158.1268
  25   2.0000      -5.769190      -156.9876
  26   2.0000      -5.761795      -156.7864
  27   2.0000      -5.761013      -156.7651
  28   2.0000      -4.744471      -129.1036
  29   2.0000      -4.743842      -129.0865
  30   2.0000      -4.742324      -129.0452
  31   2.0000      -1.095798       -29.8182
  32   2.0000      -1.086538       -29.5662
  33   2.0000      -1.052230       -28.6326
  34   2.0000      -1.008152       -27.4332
  35   2.0000      -0.999813       -27.2063
  36   2.0000      -0.998463       -27.1696
  37   2.0000      -0.816826       -22.2270
  38   2.0000      -0.750200       -20.4140
  39   2.0000      -0.747507       -20.3407
  40   2.0000      -0.729019       -19.8376
  41   2.0000      -0.695874       -18.9357
  42   2.0000      -0.668055       -18.1787
  43   2.0000      -0.659685       -17.9510
  44   2.0000      -0.652687       -17.7605
  45   2.0000      -0.624615       -16.9966
  46   2.0000      -0.593052       -16.1378
  47   2.0000      -0.542997       -14.7757
  48   2.0000      -0.533454       -14.5160
  49   2.0000      -0.527160       -14.3447
  50   2.0000      -0.503551       -13.7023
  51   2.0000      -0.490936       -13.3591
  52   2.0000      -0.488630       -13.2963
  53   2.0000      -0.476841       -12.9755
  54   2.0000      -0.462504       -12.5854
  55   2.0000      -0.457918       -12.4606
  56   2.0000      -0.451909       -12.2971
  57   2.0000      -0.446614       -12.1530
  58   2.0000      -0.440703       -11.9921
  59   2.0000      -0.426767       -11.6129
  60   2.0000      -0.417680       -11.3656
  61   2.0000      -0.412350       -11.2206
  62   2.0000      -0.408849       -11.1253
  63   2.0000      -0.395917       -10.7735
  64   2.0000      -0.391360       -10.6494
  65   2.0000      -0.383998       -10.4491
  66   2.0000      -0.377679       -10.2772
  67   2.0000      -0.365815        -9.9543
  68   2.0000      -0.363263        -9.8849
  69   2.0000      -0.355233        -9.6664
  70   2.0000      -0.349824        -9.5192
  71   2.0000      -0.340243        -9.2585
  72   2.0000      -0.336010        -9.1433
  73   2.0000      -0.330685        -8.9984
  74   2.0000      -0.323947        -8.8150
  75   2.0000      -0.317343        -8.6354
  76   2.0000      -0.314402        -8.5553
  77   2.0000      -0.305712        -8.3188
  78   2.0000      -0.290755        -7.9119
  79   2.0000      -0.286329        -7.7914
  80   2.0000      -0.281344        -7.6557
  81   2.0000      -0.277234        -7.5439
  82   2.0000      -0.262165        -7.1339
  83   2.0000      -0.257539        -7.0080
  84   2.0000      -0.242568        -6.6006
  85   2.0000      -0.227882        -6.2010
  86   2.0000      -0.221937        -6.0392
  87   0.0000      -0.049907        -1.3580
  88   0.0000      -0.042217        -1.1488
  89   0.0000      -0.023227        -0.6321
  90   0.0000       0.000249         0.0068
  91   0.0000       0.014448         0.3932

MULLIKEN ATOMIC CHARGES
-----------------------
   0 C :   -0.513847
   1 C :   -0.135598
   2 O :   -0.122227
   3 C :    0.352055
   4 O :   -0.466005
   5 C :   -0.442750
   6 C :    0.030329
   7 H :    0.262871
   8 C :    0.252932
   9 O :   -0.447955
  10 O :   -0.129772
  11 C :   -0.152625
  12 C :   -0.496912
  13 S :   -0.208990
  14 P :    0.799435
  15 S :   -0.502395
  16 O :   -0.394441
  17 C :   -0.307456
  18 O :   -0.344513
  19 C :   -0.297982
  20 H :    0.173151
  21 H :    0.175094
  22 H :    0.174384
  23 H :    0.175618
  24 H :    0.179655
  25 H :    0.218855
  26 H :    0.233059
  27 H :    0.178919
  28 H :    0.176352
  29 H :    0.168248
  30 H :    0.166283
  31 H :    0.172916
  32 H :    0.176058
  33 H :    0.177837
  34 H :    0.173264
  35 H :    0.183686
  36 H :    0.178741
  37 H :    0.183727
Sum of atomic charges:   -0.0000000

LOEWDIN ATOMIC CHARGES
----------------------
   0 C :   -0.393598
   1 C :    0.040918
   2 O :   -0.590597
   3 C :    0.359569
   4 O :   -0.464881
   5 C :   -0.189879
   6 C :   -0.189173
   7 H :    0.215218
   8 C :    0.331620
   9 O :   -0.497427
  10 O :   -0.568327
  11 C :    0.043382
  12 C :   -0.386582
  13 S :    0.213363
  14 P :    0.407961
  15 S :   -0.117428
  16 O :   -0.704180
  17 C :   -0.059527
  18 O :   -0.668358
  19 C :   -0.042341
  20 H :    0.167340
  21 H :    0.164030
  22 H :    0.167815
  23 H :    0.192379
  24 H :    0.191348
  25 H :    0.197486
  26 H :    0.213115
  27 H :    0.188348
  28 H :    0.189074
  29 H :    0.163682
  30 H :    0.164095
  31 H :    0.169908
  32 H :    0.176784
  33 H :    0.187612
  34 H :    0.175030
  35 H :    0.191774
  36 H :    0.179285
  37 H :    0.181161

  Mayer bond orders larger than 0.100000
B(  0-C ,  1-C ) :   0.9071 B(  0-C , 20-H ) :   0.9666 B(  0-C , 21-H ) :   0.9690
B(  0-C , 22-H ) :   0.9589 B(  1-C ,  2-O ) :   0.7818 B(  1-C , 23-H ) :   0.9594
B(  1-C , 24-H ) :   0.9537 B(  2-O ,  3-C ) :   1.0545 B(  3-C ,  4-O ) :   1.8268
B(  3-C ,  5-C ) :   0.9326 B(  5-C ,  6-C ) :   0.8272 B(  5-C , 25-H ) :   0.9856
B(  5-C , 26-H ) :   0.9433 B(  6-C ,  7-H ) :   0.8980 B(  6-C ,  8-C ) :   0.9185
B(  6-C , 13-S ) :   0.8962 B(  8-C ,  9-O ) :   1.6742 B(  8-C , 10-O ) :   1.2112
B( 10-O , 11-C ) :   0.7617 B( 11-C , 12-C ) :   0.9392 B( 11-C , 27-H ) :   0.9395
B( 11-C , 28-H ) :   0.9477 B( 12-C , 29-H ) :   0.9726 B( 12-C , 30-H ) :   0.9691
B( 12-C , 31-H ) :   0.9617 B( 13-S , 14-P ) :   0.9917 B( 14-P , 15-S ) :   1.7728
B( 14-P , 16-O ) :   1.0027 B( 14-P , 18-O ) :   1.1833 B( 16-O , 17-C ) :   0.8299
B( 17-C , 32-H ) :   0.9547 B( 17-C , 33-H ) :   0.9585 B( 17-C , 34-H ) :   0.9502
B( 18-O , 19-C ) :   0.7872 B( 19-C , 35-H ) :   0.9541 B( 19-C , 36-H ) :   0.9481
B( 19-C , 37-H ) :   0.9530

Dispersion correction           -0.018079011
FINAL SINGLE POINT ENERGY     -1981.465293797161

DIPOLE MOMENT
-------------

Method             : SCF
Type of density    : Electron Density
Multiplicity       :   1
Irrep              :   0
Energy             : -1981.4847618934477396 Eh
Relativity type    :
Basis              : AO
                                X                 Y                 Z
Electronic contribution:    -12.860184539       3.089060967      -3.670254852
Nuclear contribution   :     14.117352928      -3.231551205       3.416696249
                        -----------------------------------------
Total Dipole Moment    :      1.257168390      -0.142490238      -0.253558603
                        -----------------------------------------
Magnitude (a.u.)       :      1.290375059
Magnitude (Debye)      :      3.279872744

Rotational constants in cm-1:             0.013039             0.007790             0.006506
Rotational constants in MHz :           390.906450           233.532462           195.052022

                             ****ORCA TERMINATED NORMALLY****
TOTAL RUN TIME: 0 days 0 hours 1 minutes 46 seconds 894 msec
