                         Program Version 6.0.1  -  RELEASE   -
|  1> ! pbe def2-sv(p) def2/J RI DEFGRID1 loosescf d4 GCP(DFT/SV(P)) printgap
|  2> %output
|  3>     printlevel normal
|  4> end
|  5> * xyz 0 1
|  6> C 5.0463719722 -3.2676045255 -0.0833023921
|  7> C 4.2888933723 -2.0235498853 0.3355682739
|  8> O 3.0828592904 -1.951721347 -0.4532579167
|  9> C 2.3337355522 -0.8819454729 -0.3404945973
| 10> O 2.602815006 0.0702890404 0.3677923223
| 11> C 1.0766519819 -0.9798621477 -1.1694551914
| 12> C 0.4224902354 0.3889716345 -1.3388373782
| 13> H 0.8065908034 0.9167587893 -2.2130066478
| 14> C 0.5867283079 1.2773021472 -0.117820486
| 15> O -0.0219639494 1.0685860945 0.9175293467
| 16> O 1.2941137972 2.3428622636 -0.3722521682
| 17> C 1.5337190926 3.2776215989 0.7002891632
| 18> C 1.9121495767 4.6116920225 0.0876911474
| 19> S -1.3750825587 0.246188682 -1.5830920755
| 20> P -2.0887385966 -0.3185911117 0.3540323326
| 21> S -1.1823445817 -1.7000758552 1.413643776
| 22> O -2.5835833615 0.9665715088 1.1377291099
| 23> C -3.5623221878 1.8678346328 0.5849488315
| 24> O -3.5293396105 -0.8502625006 -0.1349556434
| 25> C -3.6821754937 -2.0991490125 -0.8132847997
| 26> H 5.3049940535 -3.2103292762 -1.1361494891
| 27> H 5.9536355023 -3.3491358884 0.50577131
| 28> H 4.4316365265 -4.1473536339 0.0804790666
| 29> H 4.8680400385 -1.1111844544 0.1622746067
| 30> H 4.0035308143 -2.0557074068 1.3916184316
| 31> H 0.4146930474 -1.6529194776 -0.6099437247
| 32> H 1.2882612156 -1.4423378026 -2.1321157228
| 33> H 0.6284050479 3.3412094246 1.3123546317
| 34> H 2.3405741792 2.8630881401 1.3120205286
| 35> H 1.0977540555 4.9895999795 -0.5233115677
| 36> H 2.1231477042 5.3201565786 0.8816364013
| 37> H 2.7945587359 4.4948758117 -0.5337066004
| 38> H -3.295462406 2.1355391042 -0.4381072963
| 39> H -3.5391465199 2.7413479766 1.2317570816
| 40> H -4.5437919856 1.3975245374 0.6006231903
| 41> H -4.7444100708 -2.3262537547 -0.7742605011
| 42> H -3.1079349218 -2.8739777398 -0.3021683123
| 43> H -3.3466923343 -2.002963688 -1.8454433913
| 44> *
| 45>
| 46>                          ****END OF INPUT****

CARTESIAN COORDINATES (ANGSTROEM)
---------------------------------
  C      5.046372   -3.267605   -0.083302
  C      4.288893   -2.023550    0.335568
  O      3.082859   -1.951721   -0.453258
  C      2.333736   -0.881945   -0.340495
  O      2.602815    0.070289    0.367792
  C      1.076652   -0.979862   -1.169455
  C      0.422490    0.388972   -1.338837
  H      0.806591    0.916759   -2.213007
  C      0.586728    1.277302   -0.117820
  O     -0.021964    1.068586    0.917529
  O      1.294114    2.342862   -0.372252
  C      1.533719    3.277622    0.700289
  C      1.912150    4.611692    0.087691
  S     -1.375083    0.246189   -1.583092
  P     -2.088739   -0.318591    0.354032
  S     -1.182345   -1.700076    1.413644
  O     -2.583583    0.966572    1.137729
  C     -3.562322    1.867835    0.584949
  O     -3.529340   -0.850263   -0.134956
  C     -3.682175   -2.099149   -0.813285
  H      5.304994   -3.210329   -1.136149
  H      5.953636   -3.349136    0.505771
  H      4.431637   -4.147354    0.080479
  H      4.868040   -1.111184    0.162275
  H      4.003531   -2.055707    1.391618
  H      0.414693   -1.652919   -0.609944
  H      1.288261   -1.442338   -2.132116
  H      0.628405    3.341209    1.312355
  H      2.340574    2.863088    1.312021
  H      1.097754    4.989600   -0.523312
  H      2.123148    5.320157    0.881636
  H      2.794559    4.494876   -0.533707
  H     -3.295462    2.135539   -0.438107
  H     -3.539147    2.741348    1.231757
  H     -4.543792    1.397525    0.600623
  H     -4.744410   -2.326254   -0.774261
  H     -3.107935   -2.873978   -0.302168
  H     -3.346692   -2.002964   -1.845443

 Total Charge           Charge          ....    0
 Multiplicity           Mult            ....    1
 Number of Electrons    NEL             ....  174
 Basis Dimension        Dim             ....  316

ORBITAL ENERGIES
----------------

  NO   OCC          E(Eh)            E(eV)
   0   2.0000     -88.036541     -2395.5961
   1   2.0000     -87.967272     -2393.7112
   2   2.0000     -76.417671     -2079.4305
   3   2.0000     -18.807785      -511.7858
   4   2.0000     -18.802967      -511.6548
   5   2.0000     -18.777791      -510.9697
   6   2.0000     -18.777004      -510.9483
   7   2.0000     -18.748381      -510.1694
   8   2.0000     -18.732387      -509.7342
   9   2.0000     -10.015413      -272.5332
  10   2.0000     -10.013828      -272.4901
  11   2.0000      -9.952680      -270.8262
  12   2.0000      -9.945612      -270.6339
  13   2.0000      -9.944073      -270.5920
  14   2.0000      -9.939596      -270.4702
  15   2.0000      -9.932574      -270.2791
  16   2.0000      -9.906774      -269.5770
  17   2.0000      -9.892336      -269.1841
  18   2.0000      -9.888169      -269.0708
  19   2.0000      -7.681128      -209.0141
  20   2.0000      -7.612516      -207.1471
  21   2.0000      -6.413060      -174.5082
  22   2.0000      -5.709046      -155.3510
  23   2.0000      -5.705417      -155.2523
  24   2.0000      -5.698346      -155.0599
  25   2.0000      -5.641871      -153.5231
  26   2.0000      -5.633384      -153.2922
  27   2.0000      -5.631922      -153.2524
  28   2.0000      -4.636167      -126.1565
  29   2.0000      -4.635105      -126.1276
  30   2.0000      -4.633226      -126.0765
  31   2.0000      -1.019095       -27.7310
  32   2.0000      -1.011637       -27.5280
  33   2.0000      -0.973166       -26.4812
  34   2.0000      -0.926980       -25.2244
  35   2.0000      -0.923587       -25.1321
  36   2.0000      -0.913566       -24.8594
  37   2.0000      -0.761400       -20.7187
  38   2.0000      -0.717849       -19.5337
  39   2.0000      -0.706036       -19.2122
  40   2.0000      -0.685260       -18.6469
  41   2.0000      -0.658215       -17.9110
  42   2.0000      -0.625693       -17.0260
  43   2.0000      -0.617476       -16.8024
  44   2.0000      -0.606270       -16.4975
  45   2.0000      -0.590100       -16.0574
  46   2.0000      -0.553903       -15.0725
  47   2.0000      -0.515125       -14.0173
  48   2.0000      -0.510254       -13.8847
  49   2.0000      -0.499286       -13.5863
  50   2.0000      -0.479785       -13.0556
  51   2.0000      -0.463822       -12.6212
  52   2.0000      -0.455706       -12.4004
  53   2.0000      -0.445907       -12.1337
  54   2.0000      -0.441151       -12.0043
  55   2.0000      -0.434109       -11.8127
  56   2.0000      -0.420535       -11.4433
  57   2.0000      -0.419305       -11.4099
  58   2.0000      -0.411067       -11.1857
  59   2.0000      -0.404851       -11.0166
  60   2.0000      -0.399104       -10.8602
  61   2.0000      -0.395746       -10.7688
  62   2.0000      -0.388002       -10.5581
  63   2.0000      -0.374213       -10.1829
  64   2.0000      -0.371290       -10.1033
  65   2.0000      -0.363617        -9.8945
  66   2.0000      -0.358407        -9.7528
  67   2.0000      -0.355638        -9.6774
  68   2.0000      -0.350623        -9.5409
  69   2.0000      -0.340715        -9.2713
  70   2.0000      -0.334016        -9.0890
  71   2.0000      -0.321172        -8.7395
  72   2.0000      -0.315068        -8.5734
  73   2.0000      -0.311006        -8.4629
  74   2.0000      -0.305987        -8.3263
  75   2.0000      -0.298685        -8.1276
  76   2.0000      -0.286497        -7.7960
  77   2.0000      -0.282656        -7.6915
  78   2.0000      -0.270519        -7.3612
  79   2.0000      -0.260899        -7.0994
  80   2.0000      -0.252756        -6.8778
  81   2.0000      -0.244906        -6.6642
  82   2.0000      -0.232235        -6.3194
  83   2.0000      -0.231850        -6.3089
  84   2.0000      -0.221153        -6.0179
  85   2.0000      -0.187546        -5.1034
  86   2.0000      -0.175490        -4.7753
  87   0.0000      -0.044421        -1.2088
  88   0.0000      -0.027200        -0.7402
  89   0.0000      -0.012433        -0.3383
  90   0.0000       0.016957         0.4614
  91   0.0000       0.033563         0.9133

MULLIKEN ATOMIC CHARGES
-----------------------
   0 C :   -0.273163
   1 C :   -0.032160
   2 O :   -0.225972
   3 C :    0.135590
   4 O :   -0.211710
   5 C :   -0.063141
   6 C :   -0.287563
   7 H :    0.127644
   8 C :    0.201819
   9 O :   -0.197124
  10 O :   -0.218770
  11 C :   -0.025151
  12 C :   -0.277011
  13 S :   -0.103215
  14 P :    0.625705
  15 S :   -0.311131
  16 O :   -0.358019
  17 C :   -0.099226
  18 O :   -0.403101
  19 C :   -0.098838
  20 H :    0.115017
  21 H :    0.113419
  22 H :    0.120660
  23 H :    0.107719
  24 H :    0.115686
  25 H :    0.139599
  26 H :    0.115049
  27 H :    0.113850
  28 H :    0.114951
  29 H :    0.112727
  30 H :    0.112139
  31 H :    0.115039
  32 H :    0.109637
  33 H :    0.125553
  34 H :    0.123009
  35 H :    0.118323
  36 H :    0.113237
  37 H :    0.108923
Sum of atomic charges:    0.0000000

LOEWDIN ATOMIC CHARGES
----------------------
   0 C :   -0.350284
   1 C :   -0.104813
   2 O :   -0.054231
   3 C :    0.046232
   4 O :   -0.151605
   5 C :   -0.264953
   6 C :   -0.258545
   7 H :    0.139308
   8 C :    0.009601
   9 O :   -0.162077
  10 O :   -0.043447
  11 C :   -0.104350
  12 C :   -0.350939
  13 S :    0.095250
  14 P :    0.591163
  15 S :   -0.310640
  16 O :   -0.234984
  17 C :   -0.209357
  18 O :   -0.270213
  19 C :   -0.221574
  20 H :    0.126741
  21 H :    0.131834
  22 H :    0.129547
  23 H :    0.117212
  24 H :    0.121796
  25 H :    0.141429
  26 H :    0.141437
  27 H :    0.119956
  28 H :    0.123079
  29 H :    0.125364
  30 H :    0.131006
  31 H :    0.126630
  32 H :    0.105258
  33 H :    0.122573
  34 H :    0.115831
  35 H :    0.118969
  36 H :    0.106996
  37 H :    0.104800

  Mayer bond orders larger than 0.100000
B(  0-C ,  1-C ) :   1.1540 B(  0-C , 20-H ) :   0.9507 B(  0-C , 21-H ) :   0.9435
B(  0-C , 22-H ) :   0.9486 B(  1-C ,  2-O ) :   0.8995 B(  1-C , 23-H ) :   0.9298
B(  1-C , 24-H ) :   0.9333 B(  2-O ,  3-C ) :   1.2531 B(  3-C ,  4-O ) :   1.9508
B(  3-C ,  5-C ) :   1.0257 B(  4-O ,  8-C ) :   0.1355 B(  5-C ,  6-C ) :   1.0096
B(  5-C , 25-H ) :   0.8302 B(  5-C , 26-H ) :   0.9007 B(  6-C ,  7-H ) :   0.8809
B(  6-C ,  8-C ) :   0.9039 B(  6-C , 13-S ) :   1.0163 B(  8-C ,  9-O ) :   1.9418
B(  8-C , 10-O ) :   1.2565 B(  9-O , 14-P ) :   0.1330 B( 10-O , 11-C ) :   0.9038
B( 11-C , 12-C ) :   1.1547 B( 11-C , 27-H ) :   0.9205 B( 11-C , 28-H ) :   0.9309
B( 12-C , 29-H ) :   0.9521 B( 12-C , 30-H ) :   0.9442 B( 12-C , 31-H ) :   0.9486
B( 13-S , 14-P ) :   0.9328 B( 13-S , 15-S ) :   0.1143 B( 14-P , 15-S ) :   1.5979
B( 14-P , 16-O ) :   1.1111 B( 14-P , 18-O ) :   1.0252 B( 15-S , 25-H ) :   0.1122
B( 16-O , 17-C ) :   0.9269 B( 17-C , 32-H ) :   0.9379 B( 17-C , 33-H ) :   0.9584
B( 17-C , 34-H ) :   0.9489 B( 18-O , 19-C ) :   0.9413 B( 19-C , 35-H ) :   0.9589
B( 19-C , 36-H ) :   0.9289 B( 19-C , 37-H ) :   0.9480

Dispersion correction           -0.050706207
FINAL SINGLE POINT ENERGY     -1979.006913016791

DIPOLE MOMENT
-------------

Method             : SCF
Type of density    : Electron Density
Multiplicity       :   1
Irrep              :   0
Energy             : -1979.1389322928671390 Eh
Relativity type    :
Basis              : AO
                                X                 Y                 Z
Electronic contribution:    -13.849693817      -3.572819671       1.935445879
Nuclear contribution   :     14.597881635       4.130028920      -3.132120924
                        -----------------------------------------
Total Dipole Moment    :      0.748187818       0.557209249      -1.196675045
                        -----------------------------------------
Magnitude (a.u.)       :      1.517332634
Magnitude (Debye)      :      3.856753054

Rotational constants in cm-1:             0.011899             0.007134             0.005209
Rotational constants in MHz :           356.713628           213.884826           156.170216

                             ****ORCA TERMINATED NORMALLY****
TOTAL RUN TIME: 0 days 0 hours 0 minutes 42 seconds 364 msec
