                         Program Version 6.0.0  -   RELEASE  -
|  1> ! pbe def2-sv(p) def2/J RI DEFGRID1 loosescf d4 GCP(DFT/SV(P)) printgap
|  2> %output
|  3>     printlevel normal
|  4> end
|  5> * xyz 0 1
|  6> C 1.1497385684 2.0227336508 2.3604816671
|  7> C 2.6453161854 1.7910457342 2.2829547903
|  8> O 3.063874188 1.3803452277 0.9680536645
|  9> P 2.7789224646 -0.0681561124 0.3984484359
| 10> S 2.8385027221 -1.5404002314 1.6982946389
| 11> O 3.9346227777 -0.0432779158 -0.6845947416
| 12> C 4.4529928345 -1.2433722797 -1.2837783721
| 13> C 3.4288928845 -1.9544388392 -2.1464987055
| 14> S 0.9867101708 0.1101553504 -0.7548320479
| 15> C -0.0285744133 -1.1724446653 0.0339320906
| 16> S -1.37423314 -0.4911516387 1.0256822131
| 17> P -2.6050825511 0.0624646727 -0.6270332157
| 18> S -2.5966397671 -1.1731539584 -2.1432760192
| 19> O -2.1261632682 1.4825702155 -1.1101662587
| 20> C -2.0130448036 2.6312022744 -0.2321851066
| 21> C -0.933875823 3.5366602736 -0.7896194863
| 22> O -3.9915909259 0.4176756872 0.065027743
| 23> C -4.7046692257 -0.4261782925 0.9892851515
| 24> C -4.9540832355 -1.8159325193 0.4423601332
| 25> H 0.6160083143 1.0798482081 2.2426723279
| 26> H 0.9025952883 2.4423987843 3.3303672231
| 27> H 0.8366982763 2.7114396456 1.5801762411
| 28> H 2.9563820959 1.0277210812 3.0035720237
| 29> H 3.2033892373 2.712156704 2.4570306708
| 30> H 5.2999024556 -0.8929596715 -1.8754083862
| 31> H 4.8067539319 -1.9045891481 -0.4861311577
| 32> H 3.9104652364 -2.7715965814 -2.6742353368
| 33> H 2.6314856028 -2.3614334572 -1.5252148921
| 34> H 2.9959293676 -1.2661275344 -2.8685367556
| 35> H 0.5986790956 -1.7644128086 0.7048375386
| 36> H -0.4630261038 -1.7840981745 -0.7580147968
| 37> H -2.9852131576 3.1269907793 -0.2140626712
| 38> H -1.7659643099 2.2823385152 0.7753023573
| 39> H -0.8338897977 4.4096694651 -0.1523808304
| 40> H 0.0145687854 3.0061872917 -0.8359973841
| 41> H -1.1974153761 3.8527764656 -1.7947056832
| 42> H -4.1306974268 -0.4732628198 1.9188006936
| 43> H -5.6399119323 0.1110024247 1.1562394841
| 44> H -5.4622501366 -1.7608402367 -0.5175661598
| 45> H -4.0098708507 -2.3398230803 0.2998624617
| 46> H -5.5664490248 -2.3750869138 1.1423930755
| 47> *
| 48>
| 49>                          ****END OF INPUT****

CARTESIAN COORDINATES (ANGSTROEM)
---------------------------------
  C      1.149739    2.022734    2.360482
  C      2.645316    1.791046    2.282955
  O      3.063874    1.380345    0.968054
  P      2.778922   -0.068156    0.398448
  S      2.838503   -1.540400    1.698295
  O      3.934623   -0.043278   -0.684595
  C      4.452993   -1.243372   -1.283778
  C      3.428893   -1.954439   -2.146499
  S      0.986710    0.110155   -0.754832
  C     -0.028574   -1.172445    0.033932
  S     -1.374233   -0.491152    1.025682
  P     -2.605083    0.062465   -0.627033
  S     -2.596640   -1.173154   -2.143276
  O     -2.126163    1.482570   -1.110166
  C     -2.013045    2.631202   -0.232185
  C     -0.933876    3.536660   -0.789619
  O     -3.991591    0.417676    0.065028
  C     -4.704669   -0.426178    0.989285
  C     -4.954083   -1.815933    0.442360
  H      0.616008    1.079848    2.242672
  H      0.902595    2.442399    3.330367
  H      0.836698    2.711440    1.580176
  H      2.956382    1.027721    3.003572
  H      3.203389    2.712157    2.457031
  H      5.299902   -0.892960   -1.875408
  H      4.806754   -1.904589   -0.486131
  H      3.910465   -2.771597   -2.674235
  H      2.631486   -2.361433   -1.525215
  H      2.995929   -1.266128   -2.868537
  H      0.598679   -1.764413    0.704838
  H     -0.463026   -1.784098   -0.758015
  H     -2.985213    3.126991   -0.214063
  H     -1.765964    2.282339    0.775302
  H     -0.833890    4.409669   -0.152381
  H      0.014569    3.006187   -0.835997
  H     -1.197415    3.852776   -1.794706
  H     -4.130697   -0.473263    1.918801
  H     -5.639912    0.111002    1.156239
  H     -5.462250   -1.760840   -0.517566
  H     -4.009871   -2.339823    0.299862
  H     -5.566449   -2.375087    1.142393

 Total Charge           Charge          ....    0
 Multiplicity           Mult            ....    1
 Number of Electrons    NEL             ....  202
 Basis Dimension        Dim             ....  334

ORBITAL ENERGIES
----------------

  NO   OCC          E(Eh)            E(eV)
   0   2.0000     -88.048367     -2395.9179
   1   2.0000     -88.044776     -2395.8202
   2   2.0000     -87.998275     -2394.5548
   3   2.0000     -87.984750     -2394.1868
   4   2.0000     -76.430859     -2079.7894
   5   2.0000     -76.427507     -2079.6982
   6   2.0000     -18.797489      -511.5057
   7   2.0000     -18.792178      -511.3612
   8   2.0000     -18.791992      -511.3561
   9   2.0000     -18.791398      -511.3399
  10   2.0000      -9.961702      -271.0717
  11   2.0000      -9.955733      -270.9093
  12   2.0000      -9.955394      -270.9001
  13   2.0000      -9.954097      -270.8647
  14   2.0000      -9.952247      -270.8144
  15   2.0000      -9.887246      -269.0456
  16   2.0000      -9.886698      -269.0307
  17   2.0000      -9.885177      -268.9894
  18   2.0000      -9.884095      -268.9599
  19   2.0000      -7.692756      -209.3305
  20   2.0000      -7.689302      -209.2365
  21   2.0000      -7.643039      -207.9777
  22   2.0000      -7.630049      -207.6242
  23   2.0000      -6.428397      -174.9256
  24   2.0000      -6.424937      -174.8314
  25   2.0000      -5.720294      -155.6571
  26   2.0000      -5.717259      -155.5745
  27   2.0000      -5.717127      -155.5709
  28   2.0000      -5.713839      -155.4815
  29   2.0000      -5.710192      -155.3822
  30   2.0000      -5.706362      -155.2780
  31   2.0000      -5.671742      -154.3359
  32   2.0000      -5.663588      -154.1141
  33   2.0000      -5.663525      -154.1124
  34   2.0000      -5.659133      -153.9928
  35   2.0000      -5.650589      -153.7603
  36   2.0000      -5.650081      -153.7465
  37   2.0000      -4.650514      -126.5469
  38   2.0000      -4.650335      -126.5421
  39   2.0000      -4.649041      -126.5068
  40   2.0000      -4.647775      -126.4724
  41   2.0000      -4.646967      -126.4504
  42   2.0000      -4.644914      -126.3945
  43   2.0000      -0.991014       -26.9669
  44   2.0000      -0.990709       -26.9586
  45   2.0000      -0.946942       -25.7676
  46   2.0000      -0.946827       -25.7645
  47   2.0000      -0.764589       -20.8055
  48   2.0000      -0.724005       -19.7012
  49   2.0000      -0.714813       -19.4511
  50   2.0000      -0.692184       -18.8353
  51   2.0000      -0.685125       -18.6432
  52   2.0000      -0.681883       -18.5550
  53   2.0000      -0.654276       -17.8038
  54   2.0000      -0.641411       -17.4537
  55   2.0000      -0.606808       -16.5121
  56   2.0000      -0.591201       -16.0874
  57   2.0000      -0.573059       -15.5937
  58   2.0000      -0.571754       -15.5582
  59   2.0000      -0.564236       -15.3536
  60   2.0000      -0.508964       -13.8496
  61   2.0000      -0.497047       -13.5253
  62   2.0000      -0.476717       -12.9721
  63   2.0000      -0.468719       -12.7545
  64   2.0000      -0.464627       -12.6431
  65   2.0000      -0.448564       -12.2061
  66   2.0000      -0.443572       -12.0702
  67   2.0000      -0.436429       -11.8758
  68   2.0000      -0.428585       -11.6624
  69   2.0000      -0.423250       -11.5172
  70   2.0000      -0.417827       -11.3697
  71   2.0000      -0.400290       -10.8924
  72   2.0000      -0.399085       -10.8597
  73   2.0000      -0.390468       -10.6252
  74   2.0000      -0.387985       -10.5576
  75   2.0000      -0.379104       -10.3160
  76   2.0000      -0.361117        -9.8265
  77   2.0000      -0.356332        -9.6963
  78   2.0000      -0.354689        -9.6516
  79   2.0000      -0.350370        -9.5341
  80   2.0000      -0.349650        -9.5145
  81   2.0000      -0.345580        -9.4037
  82   2.0000      -0.343387        -9.3440
  83   2.0000      -0.340739        -9.2720
  84   2.0000      -0.337889        -9.1944
  85   2.0000      -0.322581        -8.7779
  86   2.0000      -0.313614        -8.5339
  87   2.0000      -0.302828        -8.2404
  88   2.0000      -0.299528        -8.1506
  89   2.0000      -0.296884        -8.0786
  90   2.0000      -0.291520        -7.9327
  91   2.0000      -0.278167        -7.5693
  92   2.0000      -0.270295        -7.3551
  93   2.0000      -0.268076        -7.2947
  94   2.0000      -0.258728        -7.0403
  95   2.0000      -0.235803        -6.4165
  96   2.0000      -0.223815        -6.0903
  97   2.0000      -0.218096        -5.9347
  98   2.0000      -0.212310        -5.7773
  99   2.0000      -0.203034        -5.5248
 100   2.0000      -0.199112        -5.4181
 101   0.0000      -0.045984        -1.2513
 102   0.0000      -0.036115        -0.9827
 103   0.0000      -0.016381        -0.4458
 104   0.0000       0.000572         0.0156
 105   0.0000       0.008215         0.2235

MULLIKEN ATOMIC CHARGES
-----------------------
   0 C :   -0.342362
   1 C :    0.004093
   2 O :   -0.357053
   3 P :    0.597574
   4 S :   -0.329714
   5 O :   -0.358693
   6 C :    0.001730
   7 C :   -0.318309
   8 S :   -0.077087
   9 C :   -0.369609
  10 S :   -0.112554
  11 P :    0.593917
  12 S :   -0.301814
  13 O :   -0.352185
  14 C :   -0.015992
  15 C :   -0.293896
  16 O :   -0.383090
  17 C :   -0.010925
  18 C :   -0.309798
  19 H :    0.132647
  20 H :    0.110503
  21 H :    0.127230
  22 H :    0.112874
  23 H :    0.107309
  24 H :    0.108823
  25 H :    0.111762
  26 H :    0.114113
  27 H :    0.123016
  28 H :    0.126215
  29 H :    0.193257
  30 H :    0.197661
  31 H :    0.107826
  32 H :    0.104943
  33 H :    0.107958
  34 H :    0.138045
  35 H :    0.121648
  36 H :    0.112750
  37 H :    0.109998
  38 H :    0.128398
  39 H :    0.126418
  40 H :    0.112373
Sum of atomic charges:   -0.0000000

LOEWDIN ATOMIC CHARGES
----------------------
   0 C :   -0.371985
   1 C :   -0.114947
   2 O :   -0.236851
   3 P :    0.573668
   4 S :   -0.308310
   5 O :   -0.236891
   6 C :   -0.115105
   7 C :   -0.369129
   8 S :    0.091688
   9 C :   -0.492634
  10 S :    0.076389
  11 P :    0.564341
  12 S :   -0.300925
  13 O :   -0.233820
  14 C :   -0.115684
  15 C :   -0.355945
  16 O :   -0.247651
  17 C :   -0.114089
  18 C :   -0.368935
  19 H :    0.112863
  20 H :    0.130532
  21 H :    0.125695
  22 H :    0.110658
  23 H :    0.120069
  24 H :    0.120925
  25 H :    0.111429
  26 H :    0.131327
  27 H :    0.119917
  28 H :    0.127644
  29 H :    0.123685
  30 H :    0.126850
  31 H :    0.116016
  32 H :    0.102334
  33 H :    0.127968
  34 H :    0.124624
  35 H :    0.130556
  36 H :    0.108213
  37 H :    0.121686
  38 H :    0.131267
  39 H :    0.121935
  40 H :    0.130624

  Mayer bond orders larger than 0.100000
B(  0-C ,  1-C ) :   1.1601 B(  0-C , 19-H ) :   0.9289 B(  0-C , 20-H ) :   0.9366
B(  0-C , 21-H ) :   0.9363 B(  1-C ,  2-O ) :   0.9155 B(  1-C , 22-H ) :   0.9162
B(  1-C , 23-H ) :   0.9334 B(  2-O ,  3-P ) :   1.1309 B(  3-P ,  4-S ) :   1.5762
B(  3-P ,  5-O ) :   1.1317 B(  3-P ,  8-S ) :   0.9491 B(  4-S ,  8-S ) :   0.1226
B(  4-S , 29-H ) :   0.1142 B(  5-O ,  6-C ) :   0.9133 B(  6-C ,  7-C ) :   1.1627
B(  6-C , 24-H ) :   0.9344 B(  6-C , 25-H ) :   0.9203 B(  7-C , 26-H ) :   0.9374
B(  7-C , 27-H ) :   0.9397 B(  7-C , 28-H ) :   0.9420 B(  8-S ,  9-C ) :   1.0076
B(  9-C , 10-S ) :   1.0076 B(  9-C , 29-H ) :   0.8503 B(  9-C , 30-H ) :   0.8622
B( 10-S , 11-P ) :   0.9383 B( 10-S , 12-S ) :   0.1089 B( 11-P , 12-S ) :   1.6515
B( 11-P , 13-O ) :   1.1412 B( 11-P , 16-O ) :   1.0882 B( 13-O , 14-C ) :   0.8857
B( 14-C , 15-C ) :   1.1708 B( 14-C , 31-H ) :   0.9313 B( 14-C , 32-H ) :   0.9091
B( 15-C , 33-H ) :   0.9388 B( 15-C , 34-H ) :   0.9331 B( 15-C , 35-H ) :   0.9455
B( 16-O , 17-C ) :   0.9129 B( 17-C , 18-C ) :   1.1668 B( 17-C , 36-H ) :   0.9270
B( 17-C , 37-H ) :   0.9333 B( 18-C , 38-H ) :   0.9431 B( 18-C , 39-H ) :   0.9324
B( 18-C , 40-H ) :   0.9348

Dispersion correction           -0.064483954
FINAL SINGLE POINT ENERGY     -2929.521106338269

DIPOLE MOMENT
-------------

Method             : SCF
Type of density    : Electron Density
Multiplicity       :   1
Irrep              :   0
Energy             : -2929.6410040744117396 Eh
Relativity type    :
Basis              : AO
                                X                 Y                 Z
Electronic contribution:      2.988274872      -5.935853922      -3.846367455
Nuclear contribution   :     -3.216987259       6.773888001       4.803487216
                        -----------------------------------------
Total Dipole Moment    :     -0.228712387       0.838034079       0.957119760
                        -----------------------------------------
Magnitude (a.u.)       :      1.292551240
Magnitude (Debye)      :      3.285404158

Rotational constants in cm-1:             0.012177             0.004610             0.004269
Rotational constants in MHz :           365.068232           138.213023           127.991873

                             ****ORCA TERMINATED NORMALLY****
TOTAL RUN TIME: 0 days 0 hours 0 minutes 20 seconds 980 msec
