                         Program Version 6.0.0  -   RELEASE  -
|  1> ! pbe def2-sv(p) def2/J RI DEFGRID1 loosescf d4 GCP(DFT/SV(P)) printgap
|  2> %output
|  3>     printlevel normal
|  4> end
|  5> * xyz 0 1
|  6> C 4.0893810749 1.3949738379 -1.4650249537
|  7> C 2.7858572175 0.8112737166 -1.9643851917
|  8> O 2.4312403663 -0.3904175505 -1.2517708482
|  9> P 2.0935490983 -0.4011598385 0.2911158304
| 10> S 1.1619298124 1.1728481031 1.0055773204
| 11> O 3.5112628654 -0.6947079816 0.945036985
| 12> C 3.7028800637 -0.7469587227 2.3743911304
| 13> C 4.2634381237 0.565771984 2.8867302651
| 14> S 1.1765098864 -2.2939577687 0.4650133798
| 15> C -0.4215962797 -1.9907578556 -0.3361807077
| 16> S -1.5795846796 -1.0429655244 0.6998644966
| 17> P -2.1368076777 0.4211362215 -0.7467320426
| 18> S -0.782696305 0.9119007679 -2.07042453
| 19> O -2.8144745429 1.5926682631 0.0771642637
| 20> C -2.1326384724 2.548725826 0.9123805902
| 21> C -2.1723621795 2.1195855105 2.3650813641
| 22> O -3.3866264694 -0.1962369093 -1.4810470386
| 23> C -4.5801676421 -0.6180620013 -0.7704039835
| 24> C -5.1428232947 -1.8378361097 -1.4699104848
| 25> H 4.3639326453 2.2427683884 -2.0847397807
| 26> H 3.9713611888 1.7311006289 -0.4354253441
| 27> H 4.8745344087 0.6442994366 -1.5032143988
| 28> H 2.8511340337 0.4850589829 -3.0031387667
| 29> H 1.9653753352 1.5292922192 -1.8642064018
| 30> H 2.7515506767 -0.9818237668 2.8598507913
| 31> H 4.4032789051 -1.5692194311 2.5306487618
| 32> H 3.5479088985 1.3685811698 2.7217519397
| 33> H 4.4583472879 0.4795205545 3.9507153207
| 34> H 5.1882981382 0.8046194892 2.369157176
| 35> H -0.8440065121 -2.9755892863 -0.5163356743
| 36> H -0.2628112072 -1.4444779707 -1.2694299668
| 37> H -1.1023897132 2.6684476118 0.5661027976
| 38> H -2.6793891788 3.4807563363 0.7577883038
| 39> H -3.1974581726 1.9360575287 2.6736517486
| 40> H -1.5874235439 1.2141541688 2.508979812
| 41> H -1.7445706163 2.908400214 2.9749143475
| 42> H -4.3132286018 -0.8390268044 0.2672122587
| 43> H -5.2789323902 0.219426321 -0.7946730999
| 44> H -4.433231323 -2.659415532 -1.4254441572
| 45> H -6.0644719584 -2.1346505003 -0.9799556011
| 46> H -5.3461227969 -1.607581468 -2.5117623366
| 47> *
| 48>
| 49>                          ****END OF INPUT****

CARTESIAN COORDINATES (ANGSTROEM)
---------------------------------
  C      4.089381    1.394974   -1.465025
  C      2.785857    0.811274   -1.964385
  O      2.431240   -0.390418   -1.251771
  P      2.093549   -0.401160    0.291116
  S      1.161930    1.172848    1.005577
  O      3.511263   -0.694708    0.945037
  C      3.702880   -0.746959    2.374391
  C      4.263438    0.565772    2.886730
  S      1.176510   -2.293958    0.465013
  C     -0.421596   -1.990758   -0.336181
  S     -1.579585   -1.042966    0.699864
  P     -2.136808    0.421136   -0.746732
  S     -0.782696    0.911901   -2.070425
  O     -2.814475    1.592668    0.077164
  C     -2.132638    2.548726    0.912381
  C     -2.172362    2.119586    2.365081
  O     -3.386626   -0.196237   -1.481047
  C     -4.580168   -0.618062   -0.770404
  C     -5.142823   -1.837836   -1.469910
  H      4.363933    2.242768   -2.084740
  H      3.971361    1.731101   -0.435425
  H      4.874534    0.644299   -1.503214
  H      2.851134    0.485059   -3.003139
  H      1.965375    1.529292   -1.864206
  H      2.751551   -0.981824    2.859851
  H      4.403279   -1.569219    2.530649
  H      3.547909    1.368581    2.721752
  H      4.458347    0.479521    3.950715
  H      5.188298    0.804619    2.369157
  H     -0.844007   -2.975589   -0.516336
  H     -0.262811   -1.444478   -1.269430
  H     -1.102390    2.668448    0.566103
  H     -2.679389    3.480756    0.757788
  H     -3.197458    1.936058    2.673652
  H     -1.587424    1.214154    2.508980
  H     -1.744571    2.908400    2.974914
  H     -4.313229   -0.839027    0.267212
  H     -5.278932    0.219426   -0.794673
  H     -4.433231   -2.659416   -1.425444
  H     -6.064472   -2.134651   -0.979956
  H     -5.346123   -1.607581   -2.511762

 Total Charge           Charge          ....    0
 Multiplicity           Mult            ....    1
 Number of Electrons    NEL             ....  202
 Basis Dimension        Dim             ....  334

ORBITAL ENERGIES
----------------

  NO   OCC          E(Eh)            E(eV)
   0   2.0000     -88.040738     -2395.7103
   1   2.0000     -88.039312     -2395.6715
   2   2.0000     -87.982793     -2394.1335
   3   2.0000     -87.979722     -2394.0499
   4   2.0000     -76.424112     -2079.6058
   5   2.0000     -76.422316     -2079.5570
   6   2.0000     -18.792547      -511.3712
   7   2.0000     -18.790200      -511.3073
   8   2.0000     -18.785906      -511.1905
   9   2.0000     -18.785484      -511.1790
  10   2.0000      -9.954398      -270.8729
  11   2.0000      -9.954064      -270.8639
  12   2.0000      -9.953217      -270.8408
  13   2.0000      -9.949224      -270.7322
  14   2.0000      -9.942847      -270.5586
  15   2.0000      -9.888088      -269.0685
  16   2.0000      -9.881335      -268.8848
  17   2.0000      -9.880021      -268.8490
  18   2.0000      -9.878207      -268.7997
  19   2.0000      -7.686377      -209.1570
  20   2.0000      -7.684035      -209.0932
  21   2.0000      -7.627571      -207.5568
  22   2.0000      -7.624918      -207.4846
  23   2.0000      -6.421557      -174.7395
  24   2.0000      -6.419919      -174.6949
  25   2.0000      -5.714222      -155.4919
  26   2.0000      -5.711853      -155.4274
  27   2.0000      -5.710862      -155.4005
  28   2.0000      -5.708609      -155.3391
  29   2.0000      -5.703312      -155.1950
  30   2.0000      -5.701056      -155.1336
  31   2.0000      -5.656301      -153.9158
  32   2.0000      -5.653962      -153.8521
  33   2.0000      -5.648216      -153.6958
  34   2.0000      -5.647880      -153.6866
  35   2.0000      -5.645694      -153.6271
  36   2.0000      -5.644713      -153.6004
  37   2.0000      -4.644060      -126.3713
  38   2.0000      -4.643395      -126.3532
  39   2.0000      -4.642729      -126.3351
  40   2.0000      -4.642067      -126.3171
  41   2.0000      -4.641714      -126.3075
  42   2.0000      -4.640131      -126.2644
  43   2.0000      -0.985576       -26.8189
  44   2.0000      -0.983938       -26.7743
  45   2.0000      -0.942964       -25.6593
  46   2.0000      -0.940871       -25.6024
  47   2.0000      -0.759470       -20.6662
  48   2.0000      -0.720283       -19.5999
  49   2.0000      -0.708216       -19.2715
  50   2.0000      -0.687712       -18.7136
  51   2.0000      -0.683997       -18.6125
  52   2.0000      -0.671386       -18.2693
  53   2.0000      -0.650014       -17.6878
  54   2.0000      -0.632779       -17.2188
  55   2.0000      -0.594741       -16.1837
  56   2.0000      -0.586752       -15.9663
  57   2.0000      -0.570024       -15.5111
  58   2.0000      -0.567245       -15.4355
  59   2.0000      -0.560046       -15.2396
  60   2.0000      -0.505398       -13.7526
  61   2.0000      -0.496349       -13.5063
  62   2.0000      -0.477670       -12.9981
  63   2.0000      -0.471429       -12.8282
  64   2.0000      -0.453405       -12.3378
  65   2.0000      -0.443922       -12.0797
  66   2.0000      -0.437430       -11.9031
  67   2.0000      -0.432892       -11.7796
  68   2.0000      -0.427687       -11.6380
  69   2.0000      -0.413174       -11.2430
  70   2.0000      -0.403375       -10.9764
  71   2.0000      -0.398163       -10.8346
  72   2.0000      -0.394204       -10.7268
  73   2.0000      -0.384699       -10.4682
  74   2.0000      -0.377824       -10.2811
  75   2.0000      -0.369583       -10.0569
  76   2.0000      -0.360840        -9.8190
  77   2.0000      -0.357622        -9.7314
  78   2.0000      -0.351790        -9.5727
  79   2.0000      -0.349080        -9.4990
  80   2.0000      -0.345118        -9.3911
  81   2.0000      -0.342411        -9.3175
  82   2.0000      -0.337183        -9.1752
  83   2.0000      -0.331369        -9.0170
  84   2.0000      -0.330792        -9.0013
  85   2.0000      -0.315568        -8.5870
  86   2.0000      -0.313111        -8.5202
  87   2.0000      -0.296379        -8.0649
  88   2.0000      -0.295878        -8.0513
  89   2.0000      -0.290144        -7.8952
  90   2.0000      -0.281917        -7.6713
  91   2.0000      -0.270561        -7.3623
  92   2.0000      -0.267454        -7.2778
  93   2.0000      -0.262934        -7.1548
  94   2.0000      -0.257931        -7.0187
  95   2.0000      -0.240979        -6.5574
  96   2.0000      -0.223663        -6.0862
  97   2.0000      -0.205564        -5.5937
  98   2.0000      -0.200115        -5.4454
  99   2.0000      -0.192008        -5.2248
 100   2.0000      -0.182371        -4.9626
 101   0.0000      -0.037578        -1.0225
 102   0.0000      -0.030182        -0.8213
 103   0.0000      -0.011667        -0.3175
 104   0.0000       0.002934         0.0798
 105   0.0000       0.022182         0.6036

MULLIKEN ATOMIC CHARGES
-----------------------
   0 C :   -0.310322
   1 C :   -0.011982
   2 O :   -0.363197
   3 P :    0.622456
   4 S :   -0.335664
   5 O :   -0.374404
   6 C :   -0.011065
   7 C :   -0.291765
   8 S :   -0.091188
   9 C :   -0.346693
  10 S :   -0.102804
  11 P :    0.603747
  12 S :   -0.306402
  13 O :   -0.382008
  14 C :   -0.010596
  15 C :   -0.309922
  16 O :   -0.360096
  17 C :   -0.009897
  18 C :   -0.277888
  19 H :    0.110935
  20 H :    0.124276
  21 H :    0.114908
  22 H :    0.105001
  23 H :    0.130963
  24 H :    0.104401
  25 H :    0.107910
  26 H :    0.127812
  27 H :    0.107264
  28 H :    0.114934
  29 H :    0.181717
  30 H :    0.195475
  31 H :    0.127487
  32 H :    0.104489
  33 H :    0.108184
  34 H :    0.140302
  35 H :    0.111085
  36 H :    0.099452
  37 H :    0.108632
  38 H :    0.111809
  39 H :    0.109662
  40 H :    0.122992
Sum of atomic charges:    0.0000000

LOEWDIN ATOMIC CHARGES
----------------------
   0 C :   -0.366861
   1 C :   -0.118410
   2 O :   -0.233961
   3 P :    0.570859
   4 S :   -0.315772
   5 O :   -0.246149
   6 C :   -0.115527
   7 C :   -0.362792
   8 S :    0.080547
   9 C :   -0.480196
  10 S :    0.067791
  11 P :    0.568942
  12 S :   -0.298374
  13 O :   -0.242607
  14 C :   -0.113805
  15 C :   -0.365324
  16 O :   -0.242970
  17 C :   -0.117212
  18 C :   -0.350793
  19 H :    0.130233
  20 H :    0.121397
  21 H :    0.125145
  22 H :    0.119852
  23 H :    0.110650
  24 H :    0.109289
  25 H :    0.118757
  26 H :    0.124442
  27 H :    0.128566
  28 H :    0.125506
  29 H :    0.135898
  30 H :    0.124430
  31 H :    0.110210
  32 H :    0.118629
  33 H :    0.122156
  34 H :    0.122534
  35 H :    0.131598
  36 H :    0.100830
  37 H :    0.117033
  38 H :    0.125508
  39 H :    0.129590
  40 H :    0.130361

  Mayer bond orders larger than 0.100000
B(  0-C ,  1-C ) :   1.1624 B(  0-C , 19-H ) :   0.9384 B(  0-C , 20-H ) :   0.9332
B(  0-C , 21-H ) :   0.9449 B(  1-C ,  2-O ) :   0.8968 B(  1-C , 22-H ) :   0.9358
B(  1-C , 23-H ) :   0.9095 B(  2-O ,  3-P ) :   1.1411 B(  3-P ,  4-S ) :   1.6099
B(  3-P ,  5-O ) :   1.1026 B(  3-P ,  8-S ) :   0.9671 B(  4-S ,  8-S ) :   0.1171
B(  5-O ,  6-C ) :   0.9023 B(  6-C ,  7-C ) :   1.1693 B(  6-C , 24-H ) :   0.9148
B(  6-C , 25-H ) :   0.9351 B(  7-C , 26-H ) :   0.9319 B(  7-C , 27-H ) :   0.9395
B(  7-C , 28-H ) :   0.9460 B(  8-S ,  9-C ) :   1.0025 B(  9-C , 10-S ) :   0.9870
B(  9-C , 29-H ) :   0.9116 B(  9-C , 30-H ) :   0.8521 B( 10-S , 11-P ) :   0.9459
B( 10-S , 12-S ) :   0.1141 B( 11-P , 12-S ) :   1.6371 B( 11-P , 13-O ) :   1.1094
B( 11-P , 16-O ) :   1.1269 B( 12-S , 30-H ) :   0.1057 B( 13-O , 14-C ) :   0.8954
B( 14-C , 15-C ) :   1.1722 B( 14-C , 31-H ) :   0.9056 B( 14-C , 32-H ) :   0.9340
B( 15-C , 33-H ) :   0.9472 B( 15-C , 34-H ) :   0.9312 B( 15-C , 35-H ) :   0.9400
B( 16-O , 17-C ) :   0.8940 B( 17-C , 18-C ) :   1.1647 B( 17-C , 36-H ) :   0.9090
B( 17-C , 37-H ) :   0.9322 B( 18-C , 38-H ) :   0.9495 B( 18-C , 39-H ) :   0.9413
B( 18-C , 40-H ) :   0.9492

Dispersion correction           -0.065664829
FINAL SINGLE POINT ENERGY     -2929.518086051231

DIPOLE MOMENT
-------------

Method             : SCF
Type of density    : Electron Density
Multiplicity       :   1
Irrep              :   0
Energy             : -2929.6364098776766696 Eh
Relativity type    :
Basis              : AO
                                X                 Y                 Z
Electronic contribution:     -1.720418524      -7.279367098      -6.899269035
Nuclear contribution   :      1.463114447       7.059952172       7.689520135
                        -----------------------------------------
Total Dipole Moment    :     -0.257304077      -0.219414927       0.790251100
                        -----------------------------------------
Magnitude (a.u.)       :      0.859560992
Magnitude (Debye)      :      2.184830410

Rotational constants in cm-1:             0.012673             0.004866             0.004785
Rotational constants in MHz :           379.938417           145.884493           143.446252

                             ****ORCA TERMINATED NORMALLY****
TOTAL RUN TIME: 0 days 0 hours 0 minutes 20 seconds 704 msec
